 Entering Gaussian System, Link 0=g16
 Input=b-carotene.gjf
 Output=b-carotene.log
 Initial command:
 /shared/centos7/gaussian-B01/g16/l1.exe "/work/donglab/chintala.v/reu/gaussian/tddft/Gau-113114.inp" -scrdir="/work/donglab/chintala.v/reu/gaussian/tddft/"
 Entering Link 1 = /shared/centos7/gaussian-B01/g16/l1.exe PID=    113116.
  
 Copyright (c) 1988-2017, Gaussian, Inc.  All Rights Reserved.
  
 This is part of the Gaussian(R) 16 program.  It is based on
 the Gaussian(R) 09 system (copyright 2009, Gaussian, Inc.),
 the Gaussian(R) 03 system (copyright 2003, Gaussian, Inc.),
 the Gaussian(R) 98 system (copyright 1998, Gaussian, Inc.),
 the Gaussian(R) 94 system (copyright 1995, Gaussian, Inc.),
 the Gaussian 92(TM) system (copyright 1992, Gaussian, Inc.),
 the Gaussian 90(TM) system (copyright 1990, Gaussian, Inc.),
 the Gaussian 88(TM) system (copyright 1988, Gaussian, Inc.),
 the Gaussian 86(TM) system (copyright 1986, Carnegie Mellon
 University), and the Gaussian 82(TM) system (copyright 1983,
 Carnegie Mellon University). Gaussian is a federally registered
 trademark of Gaussian, Inc.
  
 This software contains proprietary and confidential information,
 including trade secrets, belonging to Gaussian, Inc.
  
 This software is provided under written license and may be
 used, copied, transmitted, or stored only in accord with that
 written license.
  
 The following legend is applicable only to US Government
 contracts under FAR:
  
                    RESTRICTED RIGHTS LEGEND
  
 Use, reproduction and disclosure by the US Government is
 subject to restrictions as set forth in subparagraphs (a)
 and (c) of the Commercial Computer Software - Restricted
 Rights clause in FAR 52.227-19.
  
 Gaussian, Inc.
 340 Quinnipiac St., Bldg. 40, Wallingford CT 06492
  
  
 ---------------------------------------------------------------
 Warning -- This program may not be used in any manner that
 competes with the business of Gaussian, Inc. or will provide
 assistance to any competitor of Gaussian, Inc.  The licensee
 of this program is prohibited from giving any competitor of
 Gaussian, Inc. access to this program.  By using this program,
 the user acknowledges that Gaussian, Inc. is engaged in the
 business of creating and licensing software in the field of
 computational chemistry and represents and warrants to the
 licensee that it is not a competitor of Gaussian, Inc. and that
 it will not use this program in any manner prohibited above.
 ---------------------------------------------------------------
  

 Cite this work as:
 Gaussian 16, Revision B.01,
 M. J. Frisch, G. W. Trucks, H. B. Schlegel, G. E. Scuseria, 
 M. A. Robb, J. R. Cheeseman, G. Scalmani, V. Barone, 
 G. A. Petersson, H. Nakatsuji, X. Li, M. Caricato, A. V. Marenich, 
 J. Bloino, B. G. Janesko, R. Gomperts, B. Mennucci, H. P. Hratchian, 
 J. V. Ortiz, A. F. Izmaylov, J. L. Sonnenberg, D. Williams-Young, 
 F. Ding, F. Lipparini, F. Egidi, J. Goings, B. Peng, A. Petrone, 
 T. Henderson, D. Ranasinghe, V. G. Zakrzewski, J. Gao, N. Rega, 
 G. Zheng, W. Liang, M. Hada, M. Ehara, K. Toyota, R. Fukuda, 
 J. Hasegawa, M. Ishida, T. Nakajima, Y. Honda, O. Kitao, H. Nakai, 
 T. Vreven, K. Throssell, J. A. Montgomery, Jr., J. E. Peralta, 
 F. Ogliaro, M. J. Bearpark, J. J. Heyd, E. N. Brothers, K. N. Kudin, 
 V. N. Staroverov, T. A. Keith, R. Kobayashi, J. Normand, 
 K. Raghavachari, A. P. Rendell, J. C. Burant, S. S. Iyengar, 
 J. Tomasi, M. Cossi, J. M. Millam, M. Klene, C. Adamo, R. Cammi, 
 J. W. Ochterski, R. L. Martin, K. Morokuma, O. Farkas, 
 J. B. Foresman, and D. J. Fox, Gaussian, Inc., Wallingford CT, 2016.
 
 ******************************************
 Gaussian 16:  ES64L-G16RevB.01 20-Dec-2017
                 8-Jun-2022 
 ******************************************
 %nprocshared=48
 Will use up to   48 processors via shared memory.
 %mem=120GB
 %chk=b-carotene.chk
 --------------------------------
 # m062x/6-31+g(d) TD(Nstates=50)
 --------------------------------
 1/38=1,172=1/1;
 2/12=2,17=6,18=5,40=1/2;
 3/5=1,6=6,7=11,11=9,25=1,30=1,74=-55/1,2,3,8;
 4//1;
 5/5=2,38=5/2;
 8/6=1,10=2,108=50/1;
 9/41=50,42=1,70=2/14;
 6/7=2,8=2,9=2,10=2/1;
 99/5=1,9=1/99;
 --------------------
 Beta-Carotene TD-DFT
 --------------------
 Symbolic Z-matrix:
 Charge =  0 Multiplicity = 1
 C                    -12.8901  -0.8145   -0.5076 
 C                     12.8997   0.441     0.6411 
 C                    -14.2559  -0.0801   -0.4187 
 C                     13.9687  -0.5754    1.1283 
 C                    -14.1325   1.4021   -0.7232 
 C                     14.2584  -1.6458    0.0914 
 C                    -11.7656  -0.011     0.1873 
 C                     11.7051  -0.2704   -0.0369 
 C                    -13.1937   2.0628    0.2749 
 C                     12.9914  -2.4292   -0.2171 
 C                    -11.9254   1.2838    0.56 
 C                     11.7507  -1.5779   -0.3966 
 C                    -12.5294  -1.027    -1.9959 
 C                    -13.1074  -2.1999    0.1487 
 C                     13.5556   1.4186   -0.3613 
 C                     12.4673   1.2391    1.8955 
 C                    -10.5162  -0.7258    0.3915 
 C                     10.5386   0.5604   -0.2876 
 C                    -10.9033   2.1251    1.289 
 C                     10.6162  -2.364    -1.0125 
 C                    -9.3101   -0.1674    0.2 
 C                     9.2794    0.1212   -0.1333 
 C                    -8.0143   -0.8203    0.3882 
 C                     8.0576    0.8903   -0.3702 
 C                    -8.0214   -2.2597    0.8498 
 C                     8.2067    2.3079   -0.8682 
 C                    -6.8238   -0.2163    0.1826 
 C                     6.8152    0.3903   -0.1964 
 C                    -5.4906   -0.7696    0.3389 
 C                     5.5378    1.0456   -0.3959 
 C                    -4.3789   -0.0528    0.0989 
 C                     4.3476    0.4561   -0.1936 
 C                    -2.9988   -0.5222    0.2249 
 C                     3.0244    1.0661   -0.3595 
 C                    -2.7772   -1.9381    0.6986 
 C                     2.9783    2.4996   -0.8248 
 C                    -1.9244    0.254    -0.033 
 C                     1.9379    0.305    -0.1059 
 C                    -0.52     -0.0913    0.054 
 C                     0.5427    0.6895   -0.2053 
 H                    -14.9809  -0.5336   -1.1065 
 H                    -14.678   -0.1942    0.5896 
 H                     14.9007  -0.0578    1.3881 
 H                     13.6261  -1.0679    2.0491 
 H                    -15.118    1.8792   -0.6708 
 H                    -13.7657   1.5561   -1.7445 
 H                     15.0309  -2.3289    0.4631 
 H                     14.6555  -1.1947   -0.8253 
 H                    -12.9377   3.0589   -0.1072 
 H                    -13.7245   2.2123    1.2241 
 H                     13.1799  -3.0184   -1.1229 
 H                     12.7999  -3.1441    0.5935 
 H                    -13.3418  -1.5315   -2.5315 
 H                    -11.634   -1.6498   -2.1064 
 H                    -12.3301  -0.0788   -2.507 
 H                    -12.2784  -2.8883   -0.0477 
 H                    -14.0093  -2.6823   -0.2474 
 H                    -13.2289  -2.1122    1.2346 
 H                     12.8973   2.2601   -0.6035 
 H                     13.8132   0.9231   -1.3038 
 H                     14.4766   1.8465    0.0515 
 H                     13.3367   1.6674    2.4081 
 H                     11.9395   0.5977    2.611 
 H                     11.8023   2.0723    1.6424 
 H                    -10.594   -1.7437    0.7546 
 H                     10.735    1.5667   -0.6416 
 H                    -11.4085   2.7969    1.9939 
 H                    -10.343    2.7487    0.5854 
 H                    -10.2131   1.5415    1.9032 
 H                     10.0172  -2.8518   -0.2374 
 H                     11.0083  -3.1587   -1.6589 
 H                     9.9808   -1.7688   -1.6729 
 H                    -9.2338    0.8426   -0.1967 
 H                     9.0889   -0.8649    0.2815 
 H                    -7.0523   -2.7392    0.9778 
 H                    -8.5673   -2.8803    0.1289 
 H                    -8.5251   -2.3381    1.8208 
 H                     8.7409    2.9103   -0.1238 
 H                     7.2876    2.8471   -1.0927 
 H                     8.7877    2.3189   -1.7983 
 H                    -6.844     0.8237   -0.1458 
 H                     6.7362   -0.642     0.1473 
 H                    -5.3867   -1.7974    0.6561 
 H                     5.5437    2.0792   -0.714 
 H                    -4.4832    0.9825   -0.2248 
 H                     4.3471   -0.5839    0.1336 
 H                    -3.275    -2.0922    1.6638 
 H                    -3.2048   -2.644    -0.0234 
 H                    -1.7457   -2.2497    0.8542 
 H                     3.4831    3.1529   -0.1041 
 H                     1.9677    2.8941   -0.9455 
 H                     3.4696    2.6034   -1.799 
 H                    -2.1061    1.2785   -0.3592 
 H                     2.0859   -0.7259    0.2177 
 H                    -0.2764   -1.104     0.3568 
 H                     0.3341    1.7091   -0.5157 
 
 Stoichiometry    C40H56
 Framework group  C1[X(C40H56)]
 Deg. of freedom   282
 Full point group                 C1      NOp   1
 Largest Abelian subgroup         C1      NOp   1
 Largest concise Abelian subgroup C1      NOp   1
                         Standard orientation:                         
 ---------------------------------------------------------------------
 Center     Atomic      Atomic             Coordinates (Angstroms)
 Number     Number       Type             X           Y           Z
 ---------------------------------------------------------------------
      1          6           0       12.894659    0.781150   -0.502180
      2          6           0      -12.898509   -0.415793    0.633315
      3          6           0       14.259156    0.045948   -0.400773
      4          6           0      -13.966441    0.609407    1.104145
      5          6           0       14.133713   -1.440386   -0.683508
      6          6           0      -14.253154    1.664844    0.051201
      7          6           0       11.768020   -0.010193    0.203128
      8          6           0      -11.701940    0.283597   -0.053649
      9          6           0       13.192642   -2.084766    0.323087
     10          6           0      -12.984512    2.441565   -0.267279
     11          6           0       11.925268   -1.299603    0.595099
     12          6           0      -11.744983    1.585714   -0.432669
     13          6           0       12.536095    0.972230   -1.993896
     14          6           0       13.113422    2.175739    0.133860
     15          6           0      -13.554792   -1.407032   -0.355345
     16          6           0      -12.468915   -1.195978    1.899891
     17          6           0       10.519539    0.709552    0.395221
     18          6           0      -10.536492   -0.552689   -0.290625
     19          6           0       10.900926   -2.128403    1.335187
     20          6           0      -10.608467    2.360810   -1.058717
     21          6           0        9.312764    0.150325    0.210507
     22          6           0       -9.276766   -0.113283   -0.141283
     23          6           0        8.017802    0.808015    0.387459
     24          6           0       -8.055934   -0.887760   -0.365304
     25          6           0        8.026687    2.254060    0.827765
     26          6           0       -8.206739   -2.312317   -0.842503
     27          6           0        6.826570    0.202959    0.189339
     28          6           0       -6.812933   -0.387246   -0.197382
     29          6           0        5.494084    0.760649    0.335819
     30          6           0       -5.536361   -1.047473   -0.385620
     31          6           0        4.381510    0.042171    0.105065
     32          6           0       -4.345448   -0.456964   -0.190586
     33          6           0        3.002024    0.515599    0.222430
     34          6           0       -3.023043   -1.071473   -0.345840
     35          6           0        2.782157    1.938693    0.674902
     36          6           0       -2.978714   -2.511760   -0.789868
     37          6           0        1.926675   -0.262597   -0.025299
     38          6           0       -1.935613   -0.308459   -0.102173
     39          6           0        0.522734    0.086207    0.054872
     40          6           0       -0.540921   -0.696627   -0.194175
     41          1           0       14.985718    0.488077   -1.094304
     42          1           0       14.680229    0.174246    0.606249
     43          1           0      -14.899592    0.097199    1.370416
     44          1           0      -13.624148    1.114899    2.017993
     45          1           0       15.118373   -1.918244   -0.622861
     46          1           0       13.767891   -1.608860   -1.702871
     47          1           0      -15.024989    2.354599    0.411827
     48          1           0      -14.649884    1.200896   -0.859226
     49          1           0       12.935482   -3.085987   -0.044579
     50          1           0       13.722057   -2.221087    1.275040
     51          1           0      -13.170965    3.017628   -1.181909
     52          1           0      -12.792825    3.168048    0.532912
     53          1           0       13.349957    1.467460   -2.535890
     54          1           0       11.641841    1.594769   -2.114677
     55          1           0       12.335868    0.016908   -2.491185
     56          1           0       12.285779    2.862496   -0.073698
     57          1           0       14.016580    2.650787   -0.268213
     58          1           0       13.233474    2.103888    1.221085
     59          1           0      -12.897570   -2.253074   -0.584288
     60          1           0      -13.810453   -0.925090   -1.305373
     61          1           0      -14.476982   -1.827309    0.062598
     62          1           0      -13.339626   -1.615264    2.417692
     63          1           0      -11.940934   -0.544932    2.606490
     64          1           0      -11.804967   -2.033892    1.659935
     65          1           0       10.598557    1.732576    0.743348
     66          1           0      -10.734102   -1.563789   -0.629970
     67          1           0       11.404186   -2.790533    2.050548
     68          1           0       10.340459   -2.761423    0.640185
     69          1           0       10.210938   -1.534689    1.939858
     70          1           0      -10.009607    2.859038   -0.290170
     71          1           0      -10.998498    3.146508   -1.717260
     72          1           0       -9.973242    1.754902   -1.709478
     73          1           0        9.235300   -0.865299   -0.171331
     74          1           0       -9.085162    0.878527    0.259146
     75          1           0        7.058214    2.736955    0.947484
     76          1           0        8.574461    2.863070    0.098451
     77          1           0        8.529346    2.345980    1.798119
     78          1           0       -8.742812   -2.902800   -0.089946
     79          1           0       -7.288248   -2.856250   -1.057891
     80          1           0       -8.786638   -2.336116   -1.773051
     81          1           0        6.845474   -0.841808   -0.123645
     82          1           0       -6.732668    0.649888    0.131136
     83          1           0        5.391474    1.793186    0.637682
     84          1           0       -5.543558   -2.085646   -0.688432
     85          1           0        4.484516   -0.997962   -0.203186
     86          1           0       -4.343651    0.587752    0.121224
     87          1           0        3.279046    2.106228    1.638331
     88          1           0        3.211771    2.633167   -0.056917
     89          1           0        1.750978    2.254215    0.824619
     90          1           0       -3.485441   -3.153535   -0.060221
     91          1           0       -1.968612   -2.909623   -0.903492
     92          1           0       -3.469010   -2.629144   -1.763031
     93          1           0        2.107101   -1.292093   -0.336115
     94          1           0       -2.082326    0.727343    0.205990
     95          1           0        0.280417    1.103658    0.342388
     96          1           0       -0.333606   -1.721034   -0.489232
 ---------------------------------------------------------------------
 Rotational constants (GHZ):           0.3788788           0.0096569           0.0095216
 Standard basis: 6-31+G(d) (6D, 7F)
 There are   872 symmetry adapted cartesian basis functions of A   symmetry.
 There are   872 symmetry adapted basis functions of A   symmetry.
   872 basis functions,  1504 primitive gaussians,   872 cartesian basis functions
   148 alpha electrons      148 beta electrons
       nuclear repulsion energy      3630.5897386490 Hartrees.
 NAtoms=   96 NActive=   96 NUniq=   96 SFac= 1.00D+00 NAtFMM=   60 NAOKFM=T Big=T
 Integral buffers will be    131072 words long.
 Regular integral format.
 Two-electron integral symmetry is turned on.
 One-electron integrals computed using PRISM.
 NBasis=   872 RedAO= T EigKep=  1.35D-06  NBF=   872
 NBsUse=   860 1.00D-06 EigRej=  8.47D-07 NBFU=   860
 ExpMin= 4.38D-02 ExpMax= 3.05D+03 ExpMxC= 4.57D+02 IAcc=3 IRadAn=         5 AccDes= 0.00D+00
 Harris functional with IExCor= 1009 and IRadAn=       5 diagonalized for initial guess.
 HarFok:  IExCor= 1009 AccDes= 0.00D+00 IRadAn=         5 IDoV= 1 UseB2=F ITyADJ=14
 ICtDFT=  3500011 ScaDFX=  1.000000  1.000000  1.000000  1.000000
 FoFCou: FMM=F IPFlag=           0 FMFlag=      100000 FMFlg1=        2001
         NFxFlg=           0 DoJE=T BraDBF=F KetDBF=T FulRan=T
         wScrn=  0.000000 ICntrl=       500 IOpCl=  0 I1Cent=   200000004 NGrid=           0
         NMat0=    1 NMatS0=      1 NMatT0=    0 NMatD0=    1 NMtDS0=    0 NMtDT0=    0
 Petite list used in FoFCou.
 Requested convergence on RMS density matrix=1.00D-08 within 128 cycles.
 Requested convergence on MAX density matrix=1.00D-06.
 Requested convergence on             energy=1.00D-06.
 No special actions if energy rises.
 SCF Done:  E(RM062X) =  -1557.15822610     A.U. after   15 cycles
            NFock= 15  Conv=0.61D-08     -V/T= 2.0090
 DoSCS=F DFT=T ScalE2(SS,OS)=  1.000000  1.000000
 ExpMin= 4.38D-02 ExpMax= 3.05D+03 ExpMxC= 4.57D+02 IAcc=3 IRadAn=         5 AccDes= 0.00D+00
 HarFok:  IExCor=  205 AccDes= 0.00D+00 IRadAn=         5 IDoV=-2 UseB2=F ITyADJ=14
 ICtDFT= 12500011 ScaDFX=  1.000000  1.000000  1.000000  1.000000
 GSVD:  LWork=       -1920 too small for GESVD, short by        8600 words or        8600 for optimal perf.
 Range of M.O.s used for correlation:    41   860
 NBasis=   872 NAE=   148 NBE=   148 NFC=    40 NFV=     0
 NROrb=    820 NOA=   108 NOB=   108 NVA=   712 NVB=   712

 **** Warning!!: The largest alpha MO coefficient is  0.14491483D+03

 Orbital symmetries:
       Occupied  (A) (A) (A) (A) (A) (A) (A) (A) (A) (A) (A) (A)
                 (A) (A) (A) (A) (A) (A) (A) (A) (A) (A) (A) (A)
                 (A) (A) (A) (A) (A) (A) (A) (A) (A) (A) (A) (A)
                 (A) (A) (A) (A) (A) (A) (A) (A) (A) (A) (A) (A)
                 (A) (A) (A) (A) (A) (A) (A) (A) (A) (A) (A) (A)
                 (A) (A) (A) (A) (A) (A) (A) (A) (A) (A) (A) (A)
                 (A) (A) (A) (A) (A) (A) (A) (A) (A) (A) (A) (A)
                 (A) (A) (A) (A) (A) (A) (A) (A) (A) (A) (A) (A)
                 (A) (A) (A) (A) (A) (A) (A) (A) (A) (A) (A) (A)
                 (A) (A) (A) (A) (A) (A) (A) (A) (A) (A) (A) (A)
                 (A) (A) (A) (A) (A) (A) (A) (A) (A) (A) (A) (A)
                 (A) (A) (A) (A) (A) (A) (A) (A) (A) (A) (A) (A)
                 (A) (A) (A) (A)
       Virtual   (A) (A) (A) (A) (A) (A) (A) (A) (A) (A) (A) (A)
                 (A) (A) (A) (A) (A) (A) (A) (A) (A) (A) (A) (A)
                 (A) (A) (A) (A) (A) (A) (A) (A) (A) (A) (A) (A)
                 (A) (A) (A) (A) (A) (A) (A) (A) (A) (A) (A) (A)
                 (A) (A) (A) (A) (A) (A) (A) (A) (A) (A) (A) (A)
                 (A) (A) (A) (A) (A) (A) (A) (A) (A) (A) (A) (A)
                 (A) (A) (A) (A) (A) (A) (A) (A) (A) (A) (A) (A)
                 (A) (A) (A) (A) (A) (A) (A) (A) (A) (A) (A) (A)
                 (A) (A) (A) (A) (A) (A) (A) (A) (A) (A) (A) (A)
                 (A) (A) (A) (A) (A) (A) (A) (A) (A) (A) (A) (A)
                 (A) (A) (A) (A) (A) (A) (A) (A) (A) (A) (A) (A)
                 (A) (A) (A) (A) (A) (A) (A) (A) (A) (A) (A) (A)
                 (A) (A) (A) (A) (A) (A) (A) (A) (A) (A) (A) (A)
                 (A) (A) (A) (A) (A) (A) (A) (A) (A) (A) (A) (A)
                 (A) (A) (A) (A) (A) (A) (A) (A) (A) (A) (A) (A)
                 (A) (A) (A) (A) (A) (A) (A) (A) (A) (A) (A) (A)
                 (A) (A) (A) (A) (A) (A) (A) (A) (A) (A) (A) (A)
                 (A) (A) (A) (A) (A) (A) (A) (A) (A) (A) (A) (A)
                 (A) (A) (A) (A) (A) (A) (A) (A) (A) (A) (A) (A)
                 (A) (A) (A) (A) (A) (A) (A) (A) (A) (A) (A) (A)
                 (A) (A) (A) (A) (A) (A) (A) (A) (A) (A) (A) (A)
                 (A) (A) (A) (A) (A) (A) (A) (A) (A) (A) (A) (A)
                 (A) (A) (A) (A) (A) (A) (A) (A) (A) (A) (A) (A)
                 (A) (A) (A) (A) (A) (A) (A) (A) (A) (A) (A) (A)
                 (A) (A) (A) (A) (A) (A) (A) (A) (A) (A) (A) (A)
                 (A) (A) (A) (A) (A) (A) (A) (A) (A) (A) (A) (A)
                 (A) (A) (A) (A) (A) (A) (A) (A) (A) (A) (A) (A)
                 (A) (A) (A) (A) (A) (A) (A) (A) (A) (A) (A) (A)
                 (A) (A) (A) (A) (A) (A) (A) (A) (A) (A) (A) (A)
                 (A) (A) (A) (A) (A) (A) (A) (A) (A) (A) (A) (A)
                 (A) (A) (A) (A) (A) (A) (A) (A) (A) (A) (A) (A)
                 (A) (A) (A) (A) (A) (A) (A) (A) (A) (A) (A) (A)
                 (A) (A) (A) (A) (A) (A) (A) (A) (A) (A) (A) (A)
                 (A) (A) (A) (A) (A) (A) (A) (A) (A) (A) (A) (A)
                 (A) (A) (A) (A) (A) (A) (A) (A) (A) (A) (A) (A)
                 (A) (A) (A) (A) (A) (A) (A) (A) (A) (A) (A) (A)
                 (A) (A) (A) (A) (A) (A) (A) (A) (A) (A) (A) (A)
                 (A) (A) (A) (A) (A) (A) (A) (A) (A) (A) (A) (A)
                 (A) (A) (A) (A) (A) (A) (A) (A) (A) (A) (A) (A)
                 (A) (A) (A) (A) (A) (A) (A) (A) (A) (A) (A) (A)
                 (A) (A) (A) (A) (A) (A) (A) (A) (A) (A) (A) (A)
                 (A) (A) (A) (A) (A) (A) (A) (A) (A) (A) (A) (A)
                 (A) (A) (A) (A) (A) (A) (A) (A) (A) (A) (A) (A)
                 (A) (A) (A) (A) (A) (A) (A) (A) (A) (A) (A) (A)
                 (A) (A) (A) (A) (A) (A) (A) (A) (A) (A) (A) (A)
                 (A) (A) (A) (A) (A) (A) (A) (A) (A) (A) (A) (A)
                 (A) (A) (A) (A) (A) (A) (A) (A) (A) (A) (A) (A)
                 (A) (A) (A) (A) (A) (A) (A) (A) (A) (A) (A) (A)
                 (A) (A) (A) (A) (A) (A) (A) (A) (A) (A) (A) (A)
                 (A) (A) (A) (A) (A) (A) (A) (A) (A) (A) (A) (A)
                 (A) (A) (A) (A) (A) (A) (A) (A) (A) (A) (A) (A)
                 (A) (A) (A) (A) (A) (A) (A) (A) (A) (A) (A) (A)
                 (A) (A) (A) (A) (A) (A) (A) (A) (A) (A) (A) (A)
                 (A) (A) (A) (A) (A) (A) (A) (A) (A) (A) (A) (A)
                 (A) (A) (A) (A) (A) (A) (A) (A) (A) (A) (A) (A)
                 (A) (A) (A) (A) (A) (A) (A) (A) (A) (A) (A) (A)
                 (A) (A) (A) (A) (A) (A) (A) (A) (A) (A) (A) (A)
                 (A) (A) (A) (A) (A) (A) (A) (A) (A) (A) (A) (A)
                 (A) (A) (A) (A) (A) (A) (A) (A) (A) (A) (A) (A)
                 (A) (A) (A) (A)
   200 initial guesses have been made.
 Convergence on wavefunction:    0.001000000000000
 Iteration     1 Dimension   200 NMult     0 NNew    200
 CISAX will form   200 AO SS matrices at one time.
 New state      5 was old state      8
 New state      6 was old state     12
 New state      7 was old state     11
 New state      8 was old state      5
 New state      9 was old state      7
 New state     10 was old state     16
 New state     11 was old state     13
 New state     12 was old state      6
 New state     13 was old state     22
 New state     15 was old state     10
 New state     16 was old state     18
 New state     18 was old state     19
 New state     19 was old state     23
 New state     20 was old state     15
 New state     21 was old state     46
 New state     22 was old state     20
 New state     23 was old state     25
 New state     24 was old state     41
 New state     25 was old state     30
 New state     26 was old state     27
 New state     27 was old state     24
 New state     28 was old state     31
 New state     29 was old state     26
 New state     30 was old state     36
 New state     31 was old state     39
 New state     32 was old state     33
 New state     33 was old state     56
 New state     34 was old state     32
 New state     35 was old state     49
 New state     36 was old state     28
 New state     37 was old state     42
 New state     38 was old state     35
 New state     39 was old state     34
 New state     40 was old state     51
 New state     41 was old state     29
 New state     42 was old state     44
 New state     43 was old state     76
 New state     44 was old state     52
 New state     45 was old state     38
 New state     46 was old state     58
 New state     47 was old state     40
 New state     48 was old state     45
 New state     49 was old state     78
 New state     50 was old state     65
 Iteration     2 Dimension   300 NMult   200 NNew    100
 New state      5 was old state      8
 New state      6 was old state      5
 New state      7 was old state      9
 New state      8 was old state      6
 New state      9 was old state      7
 New state     10 was old state     11
 New state     11 was old state     10
 New state     13 was old state     16
 New state     14 was old state     13
 New state     15 was old state     14
 New state     16 was old state     15
 New state     17 was old state     20
 New state     18 was old state     17
 New state     20 was old state     18
 New state     21 was old state     22
 New state     22 was old state     21
 New state     25 was old state     31
 New state     26 was old state     25
 New state     27 was old state     26
 New state     28 was old state     41
 New state     29 was old state     28
 New state     30 was old state     27
 New state     31 was old state     29
 New state     33 was old state     30
 New state     34 was old state     35
 New state     35 was old state     33
 New state     36 was old state     34
 New state     38 was old state     36
 New state     39 was old state     40
 New state     40 was old state     38
 New state     41 was old state     39
 New state     42 was old state     48
 New state     43 was old state     46
 New state     44 was old state     42
 New state     45 was old state     43
 New state     46 was old state     44
 New state     47 was old state     45
 New state     48 was old state     47
 New state     49 was old state     50
 New state     50 was old state     49
 Iteration     3 Dimension   400 NMult   300 NNew    100
 New state     48 was old state     49
 New state     49 was old state     48
 Iteration     4 Dimension   500 NMult   400 NNew    100
 New state     42 was old state     43
 New state     43 was old state     42
 New state     45 was old state     47
 New state     46 was old state     45
 New state     47 was old state     48
 New state     48 was old state     46
 New state     49 was old state     50
 New state     50 was old state     49
 Iteration     5 Dimension   570 NMult   500 NNew     70
 Iteration     6 Dimension   612 NMult   570 NNew     42
 Iteration     7 Dimension   636 NMult   612 NNew     24
 Iteration     8 Dimension   640 NMult   636 NNew      4
 ***********************************************************************
 Excited states from <AA,BB:AA,BB> singles matrix:
 ***********************************************************************
 
 Ground to excited state transition densities written to RWF  633
 Ground to excited state transition electric dipole moments (Au):
       state          X           Y           Z        Dip. S.      Osc.
         1         7.5303      0.6132      0.3921     57.2355      4.0290
         2         0.0627      0.1900      0.0697      0.0449      0.0041
         3         0.1963     -0.1098     -0.0273      0.0513      0.0051
         4         0.4684     -1.1213     -0.0902      1.4849      0.1595
         5         1.2453     -0.7226      0.0125      2.0730      0.2381
         6         0.0439      0.0155      0.1317      0.0195      0.0023
         7        -0.0592     -0.0164      0.0301      0.0047      0.0006
         8        -0.0432     -0.0001      0.0338      0.0030      0.0004
         9        -0.0322     -0.0243     -0.0129      0.0018      0.0002
        10        -0.9326     -0.5107     -0.1357      1.1491      0.1439
        11        -0.0355     -0.2063      0.0614      0.0476      0.0060
        12         0.0533     -0.0596     -0.1597      0.0319      0.0041
        13        -0.5619     -0.1577      0.1100      0.3527      0.0456
        14        -0.1389     -0.0328      0.0396      0.0219      0.0029
        15         0.0205      0.0163      0.0135      0.0009      0.0001
        16        -0.1018     -0.0553      0.0352      0.0147      0.0019
        17         0.1056     -0.0030      0.0357      0.0124      0.0017
        18        -0.0549      0.1063      0.0501      0.0168      0.0023
        19        -0.1092     -0.1944     -0.0277      0.0505      0.0069
        20        -0.0832      0.0895      0.0376      0.0163      0.0023
        21         0.1063     -0.0053     -0.0681      0.0160      0.0022
        22        -0.0549      0.0572      0.0992      0.0161      0.0022
        23         0.0454      0.1237     -0.0364      0.0187      0.0026
        24        -0.0221     -0.1393      0.0319      0.0209      0.0030
        25         0.2518      0.3959     -0.0905      0.2283      0.0325
        26         0.2150      0.5080     -0.1345      0.3223      0.0462
        27         0.0692     -0.2202      0.0446      0.0553      0.0080
        28        -0.0298      0.4191     -0.0798      0.1829      0.0264
        29         0.0077      0.0951     -0.0124      0.0093      0.0013
        30         0.0425      0.1497     -0.0073      0.0243      0.0035
        31         0.1794      0.0977      0.0118      0.0418      0.0061
        32        -0.0461      0.0365      0.0364      0.0048      0.0007
        33         0.0741     -0.0419      0.0059      0.0073      0.0011
        34         0.0324      0.0676     -0.0302      0.0065      0.0010
        35         0.1396      0.1400     -0.0956      0.0482      0.0072
        36        -0.3255      0.1993     -0.0777      0.1517      0.0227
        37        -0.1559      0.0981     -0.0211      0.0344      0.0051
        38         0.0336      0.0147     -0.0237      0.0019      0.0003
        39         0.1255     -0.1315     -0.0131      0.0332      0.0050
        40        -0.1576     -0.0373      0.0162      0.0265      0.0040
        41         0.0178      0.1803     -0.0733      0.0382      0.0058
        42         0.0995      0.1088      0.0917      0.0302      0.0046
        43         0.0232     -0.0348      0.0275      0.0025      0.0004
        44        -0.0197      0.0114     -0.0038      0.0005      0.0001
        45         0.1881      0.2357     -0.1644      0.1180      0.0181
        46         0.2338      0.2475     -0.0735      0.1213      0.0186
        47         0.1131      0.1229      0.0437      0.0298      0.0046
        48        -0.0800     -0.0073     -0.0016      0.0065      0.0010
        49        -0.1121     -0.0776      0.0032      0.0186      0.0029
        50        -0.0234     -0.0644     -0.0392      0.0062      0.0010
 Ground to excited state transition velocity dipole moments (Au):
       state          X           Y           Z        Dip. S.      Osc.
         1        -0.7994     -0.0653     -0.0414      0.6450      4.0723
         2        -0.0088     -0.0263     -0.0096      0.0009      0.0042
         3        -0.0290      0.0164      0.0040      0.0011      0.0051
         4        -0.0796      0.1847      0.0173      0.0407      0.1685
         5        -0.2183      0.1249     -0.0020      0.0632      0.2447
         6        -0.0084     -0.0026     -0.0191      0.0004      0.0016
         7         0.0114      0.0032     -0.0042      0.0002      0.0006
         8         0.0075      0.0009     -0.0052      0.0001      0.0003
         9         0.0058      0.0051      0.0016      0.0001      0.0002
        10         0.1770      0.0962      0.0264      0.0413      0.1465
        11         0.0072      0.0370     -0.0199      0.0018      0.0064
        12        -0.0096      0.0110      0.0302      0.0011      0.0039
        13         0.1117      0.0323     -0.0194      0.0139      0.0478
        14         0.0279      0.0076     -0.0080      0.0009      0.0031
        15        -0.0035     -0.0051     -0.0027      0.0000      0.0002
        16         0.0196      0.0128     -0.0069      0.0006      0.0020
        17        -0.0218     -0.0009     -0.0110      0.0006      0.0020
        18         0.0114     -0.0211     -0.0103      0.0007      0.0022
        19         0.0218      0.0396      0.0062      0.0021      0.0067
        20         0.0173     -0.0219     -0.0066      0.0008      0.0027
        21        -0.0214      0.0008      0.0128      0.0006      0.0020
        22         0.0107     -0.0093     -0.0203      0.0006      0.0020
        23        -0.0090     -0.0258      0.0087      0.0008      0.0026
        24         0.0039      0.0302     -0.0058      0.0010      0.0030
        25        -0.0505     -0.0856      0.0192      0.0103      0.0320
        26        -0.0428     -0.1103      0.0281      0.0148      0.0458
        27        -0.0147      0.0453     -0.0131      0.0024      0.0075
        28         0.0075     -0.0893      0.0181      0.0084      0.0257
        29        -0.0007     -0.0218      0.0029      0.0005      0.0015
        30        -0.0094     -0.0323      0.0019      0.0011      0.0035
        31        -0.0400     -0.0239     -0.0032      0.0022      0.0066
        32         0.0095     -0.0104     -0.0050      0.0002      0.0007
        33        -0.0162      0.0078     -0.0027      0.0003      0.0010
        34        -0.0068     -0.0138      0.0062      0.0003      0.0008
        35        -0.0307     -0.0307      0.0199      0.0023      0.0068
        36         0.0705     -0.0393      0.0200      0.0069      0.0206
        37         0.0339     -0.0208      0.0040      0.0016      0.0048
        38        -0.0062     -0.0022      0.0062      0.0001      0.0002
        39        -0.0290      0.0279      0.0045      0.0016      0.0048
        40         0.0344      0.0080     -0.0021      0.0012      0.0037
        41        -0.0086     -0.0392      0.0184      0.0019      0.0057
        42        -0.0226     -0.0245     -0.0149      0.0013      0.0039
        43        -0.0054      0.0073     -0.0060      0.0001      0.0003
        44         0.0043     -0.0024      0.0005      0.0000      0.0001
        45        -0.0419     -0.0557      0.0385      0.0063      0.0184
        46        -0.0526     -0.0589      0.0199      0.0066      0.0192
        47        -0.0275     -0.0299     -0.0129      0.0018      0.0052
        48         0.0183      0.0028     -0.0024      0.0003      0.0010
        49         0.0260      0.0164     -0.0031      0.0010      0.0027
        50         0.0053      0.0153      0.0076      0.0003      0.0009
 Ground to excited state transition magnetic dipole moments (Au):
       state          X           Y           Z
         1         0.0036      0.1364     -0.5517
         2        -0.1475     -0.0805      2.1192
         3         0.0811     -0.0286     -1.1013
         4        -0.0367      0.0601      0.0444
         5        -0.0190      0.0815     -0.1981
         6         0.0583     -0.0096     -0.3258
         7        -0.2536      0.0802      2.8625
         8         0.0026     -0.0959     -0.7100
         9        -0.2548      0.2675     -0.2417
        10        -0.0023     -0.0343      0.1388
        11         0.0730     -0.0631     -0.4900
        12         0.0523     -0.0815     -0.3857
        13         0.0044      0.0158     -0.4810
        14        -0.1213      0.1245      2.5228
        15        -0.2967      0.4564      1.5006
        16         0.1534     -0.3174     -1.4337
        17        -0.0055      0.0397      0.2511
        18        -0.0271     -0.4212      0.0745
        19         0.0899     -0.2645     -0.1207
        20        -0.0742      0.1631      0.0810
        21        -0.0698      0.2095      0.5190
        22         0.0877      0.2741      0.1289
        23         0.1806      0.0464     -0.6637
        24         0.0048     -0.0023     -0.0271
        25         0.0735     -0.0602     -0.2461
        26        -0.0939     -0.1892      0.5776
        27        -0.0188      0.0112     -0.0587
        28         0.0240      0.1430      0.1983
        29         0.1164     -0.0266     -0.8279
        30        -0.0310     -0.3033      0.1291
        31         0.0547     -0.2316      0.0552
        32        -0.0662      0.0754      0.2714
        33         0.1092      0.0407     -0.6206
        34         0.3202     -0.1285      0.2908
        35        -0.1808      0.1856      0.2322
        36         0.0155     -0.0156      0.2194
        37         0.1515     -0.6061     -1.1987
        38         0.2089     -1.2892     -2.7157
        39         0.0109      0.1463      0.3929
        40        -0.0565     -0.2817     -1.1260
        41         0.0577     -0.2804     -0.4012
        42        -0.0308      0.0880      0.5547
        43         0.0341      0.0245      1.2081
        44        -0.0994      0.0403     -0.0387
        45         0.0181     -0.1206      0.0432
        46         0.0379      0.1125     -0.8185
        47         0.0259     -0.2091      0.5163
        48        -0.0274      0.5215     -0.4790
        49         0.0703     -0.1694     -0.0462
        50        -0.0777      0.2232      0.0565
 Ground to excited state transition velocity quadrupole moments (Au):
       state          XX          YY          ZZ          XY          XZ          YZ
         1        -0.1898      0.0735     -0.0035     -0.0835     -0.0652      0.0222
         2       -18.1491     -0.4788     -0.1198      1.0146     -0.4478      0.1072
         3        10.5984      0.2967      0.1104     -0.5623      0.2946     -0.0677
         4         0.0104     -0.0406     -0.0189     -0.1914     -0.1448      0.0060
         5         0.2549      0.0083     -0.0136     -0.2925     -0.1399      0.0028
         6        -0.2498     -0.0218      0.0158     -0.4101      0.0096     -0.0111
         7         1.6783     -0.1582      0.0172      3.3080      0.0287      0.1817
         8        -0.3403      0.1210     -0.0660     -0.6646      0.0001     -0.0551
         9         0.2544      0.2018     -0.1816     -0.2163     -0.3147     -0.2256
        10         0.0277     -0.0712     -0.0018     -0.0086     -0.0007     -0.0112
        11         0.2733      0.0333      0.0267     -0.5819      0.0726      0.0023
        12         0.3107      0.0406      0.0236     -0.4746      0.0739     -0.0114
        13         0.8774      0.1941     -0.0063     -0.4195      0.0404     -0.0197
        14        -3.9828     -0.2449     -0.0001      2.6138     -0.1408      0.2545
        15        -0.7627     -0.1594     -0.0169      1.4049     -0.4623     -0.0657
        16         2.5398      0.2331     -0.0128     -1.4195      0.2655      0.0084
        17        -1.4953     -0.0539      0.0342      0.0409     -0.0295      0.0035
        18         0.4293      0.3127      0.1151      0.1271      0.4277     -0.0223
        19         1.4042      0.2718      0.0416      0.0416      0.3007      0.1074
        20         0.2713     -0.0056      0.0461      0.1663     -0.1117     -0.0323
        21         1.8050      0.0097      0.0274      0.6949     -0.1012      0.0208
        22         0.3828     -0.0856     -0.0830      0.3069     -0.2488      0.0994
        23         0.9725      0.0450     -0.0574     -0.5607     -0.1643     -0.0170
        24         4.6940     -0.0145      0.0509      0.1166     -0.0523     -0.0659
        25         0.5949      0.1352      0.0684     -0.2412      0.0551      0.0300
        26         1.3965     -0.3023     -0.0741      0.6554      0.2089     -0.0555
        27         0.0066      0.1262      0.0228     -0.0203      0.0108      0.0141
        28        -0.1389      0.0232      0.0383      0.2281     -0.1194      0.0386
        29        -1.8219     -0.2042     -0.0793     -1.0348     -0.1280     -0.0934
        30         2.5442     -0.0295     -0.0229      0.1899      0.3470     -0.0046
        31         0.1497      0.0115      0.0389      0.0049      0.2283     -0.0405
        32        -0.2674     -0.0094      0.0035      0.3557     -0.0848      0.0113
        33        -3.1400      0.1438      0.0130     -0.6633     -0.0271      0.0515
        34        -0.3306      0.0509      0.0641      0.5420      0.0284      0.0716
        35        -0.4797     -0.1162     -0.0110      0.1721     -0.1557     -0.0133
        36         0.6167     -0.1195     -0.0184      0.1932     -0.0112      0.0174
        37        -0.5549      0.2674     -0.0175     -1.2352      0.5870     -0.0125
        38        -2.7097      0.3936     -0.0585     -2.9750      1.2418     -0.1575
        39        -0.3408     -0.0340      0.0023      0.4582     -0.1909      0.0928
        40        -0.0243      0.0427      0.0220     -1.5002      0.3964     -0.2469
        41        -0.2471      0.0211      0.0220     -0.4870      0.2562     -0.0351
        42         0.0303     -0.0691     -0.0056      0.6322     -0.1147      0.0494
        43         0.1782     -0.2612     -0.0693      1.4456     -0.1283      0.0888
        44         0.2313     -0.0715      0.0296      0.1654      0.2428      0.0431
        45         0.6061     -0.0246     -0.0615      0.1244      0.1391      0.0141
        46        -0.0572      0.0778     -0.0570     -0.9073     -0.1748     -0.0559
        47         1.0367     -0.1450      0.0136      0.4562      0.2783      0.0216
        48        -1.0054      0.1296     -0.0757     -0.5706     -0.5472     -0.0116
        49         0.2238     -0.0545      0.0396      0.0428      0.1404      0.0711
        50         0.0099     -0.0231     -0.2472     -0.1257     -0.1889      0.0268
 <0|del|b> * <b|rxdel|0> + <0|del|b> * <b|delr+rdel|0>
 Rotatory Strengths (R) in cgs (10**-40 erg-esu-cm/Gauss)
       state          XX          YY          ZZ    R(velocity)    E-M Angle
         1        43.8614     -4.2975     34.2677     24.6105       88.62
         2      -101.7051    -26.2254     41.2996    -28.8770      105.74
         3       -28.6269     -6.1190      0.0975    -11.5495      101.32
         4        77.4586     14.3193    -26.8683     21.6365       28.35
         5        58.7393      6.8871     -5.2474     20.1264       74.22
         6        27.8611     -3.9602     -1.1444      7.5855       34.11
         7       -51.1319      2.1059     -9.0517    -19.3592      114.17
         8        13.5753     -0.3112      0.6697      4.6446       56.84
         9         4.2313     -5.4060     -0.7798     -0.6515       98.47
        10         0.3847      2.8593     -3.3796     -0.0452       90.00
        11        30.5079     -2.4137      1.5970      9.8971       68.06
        12       -51.3169      4.2446     -1.2895    -16.1206      167.91
        13        30.4390     -0.9366      8.1957     12.5660       79.50
        14       -70.8163      8.0604    -19.2404    -27.3321      107.34
        15       -22.6811      1.8452      1.5299     -6.4353      119.71
        16        21.8186      5.8286      3.8809     10.5094       75.78
        17        -5.6866     -3.9352      0.3239     -3.0993      115.49
        18        27.1578     -0.0316     -0.3274      8.9329       45.79
        19       -39.2110      5.6476      1.8056    -10.5859      131.85
        20       -13.0933     -2.1950     -3.1681     -6.1521      162.86
        21        26.9847     -2.0642      3.4500      9.4568       53.73
        22       -23.3806      9.5722     -0.6144     -4.8076      122.81
        23       -26.8624     -3.9447      2.1098     -9.5658      115.82
        24         1.6492      0.9746     -2.2718      0.1174       82.87
        25         0.8152     -8.7995     -2.9041     -3.6295       97.08
        26       129.0766      6.9378     -0.8527     45.0539       56.65
        27         1.7142      0.9339      2.4188      1.6890       59.91
        28       -25.6439     -0.1139     -3.6230     -9.7936      113.64
        29       -12.2513      0.9391      5.2270     -2.0284       95.87
        30        34.8812      0.3537     -1.8782     11.1189       22.16
        31        17.3343     -1.1701     -5.9802      3.3947       73.85
        32        -7.6789     -0.1603     -1.0200     -2.9531      129.83
        33         6.2726     -4.3272     -1.3204      0.2083       89.02
        34        11.6855     -6.6979     -0.4777      1.5033       79.05
        35        -3.8929     11.3411      6.6961      4.7148       74.42
        36        13.2952      4.4841      1.4531      6.4108       70.59
        37        23.9078      7.6592      9.3939     13.6537       76.09
        38       -46.9490      2.0382     -3.4159    -16.1089      124.20
        39        20.7257     -5.1667      1.7718      5.7769       71.02
        40         0.0802    -17.5243     11.6662     -1.9260       92.58
        41         7.3133      2.1608      0.2368      3.2370       81.78
        42       -35.2054      1.1390      3.8451    -10.0738      118.18
        43       -23.1483      1.2049     -0.7270     -7.5568      123.61
        44         0.8692     -0.5462     -2.0159     -0.5643      164.63
        45        32.1616     -6.8803     -1.8422      7.8130       42.27
        46       -78.7160      4.1660     -1.9475    -25.4992      111.68
        47         3.1212     -3.1919     -3.3541     -1.1416       92.69
        48         8.4135     -1.4306     -0.5514      2.1438       80.85
        49        -7.7467      6.0397     -0.7595     -0.8222       97.94
        50         8.7437      1.6770     -0.0452      3.4585       37.84
 1/2[<0|r|b>*<b|rxdel|0> + (<0|rxdel|b>*<b|r|0>)*]
 Rotatory Strengths (R) in cgs (10**-40 erg-esu-cm/Gauss)
       state          XX          YY          ZZ     R(length)
         1       -19.1751    -59.1569    152.9626     24.8769
         2         6.5390     10.8112   -104.5218    -29.0572
         3       -11.2551     -2.2200    -21.2467    -11.5739
         4        12.1643     47.6553      2.8323     20.8840
         5        16.7171     41.6276      1.7560     20.0336
         6        -1.8090      0.1057     30.3501      9.5490
         7       -10.6243      0.9315    -60.9506    -23.5478
         8         0.0801     -0.0048     16.9918      5.6891
         9        -5.7976      4.6018     -2.2027     -1.1328
        10        -1.5087    -12.3961     13.3184     -0.1955
        11         1.8303     -9.2115     21.2883      4.6357
        12        -1.9709     -3.4310    -43.5519    -16.3179
        13         1.7332      1.7605     37.4259     13.6398
        14       -11.9146      2.8869    -70.6029    -26.5435
        15         4.2977     -5.2708    -14.2976     -5.0903
        16        11.0370    -12.4174     35.7197     11.4464
        17         0.4095      0.0852     -6.3347     -1.9467
        18        -1.0500     31.6757     -2.6374      9.3294
        19         6.9428    -36.3606     -2.3617    -10.5932
        20        -4.3645    -10.3286     -2.1519     -5.6150
        21         5.2445      0.7918     24.9991     10.3451
        22         3.4018    -11.0772     -9.0382     -5.5712
        23        -5.7936     -4.0622    -17.0930     -8.9829
        24         0.0750     -0.2241      0.6115      0.1542
        25       -13.0792     16.8550    -15.7442     -3.9895
        26        14.2813     67.9822     54.9330     45.7322
        27         0.9215      1.7383      1.8483      1.5027
        28         0.5057    -42.3884     11.1892    -10.2312
        29        -0.6312      1.7915     -7.2544     -2.0313
        30         0.9308     32.1018      0.6687     11.2337
        31        -6.9360     15.9968     -0.4601      2.8669
        32        -2.1580     -1.9455     -6.9893     -3.6976
        33        -5.7177      1.2068      2.5893     -0.6405
        34        -7.3468      6.1474      6.1999      1.6668
        35        17.8494    -18.3703     15.6906      5.0566
        36         3.5726      2.2000     12.0600      5.9442
        37        16.7042     42.0433    -17.8911     13.6188
        38        -4.9670     13.4427    -45.4552    -12.3265
        39        -0.9643     13.6065      3.6474      5.4298
        40        -6.2955     -7.4269     12.8640     -0.2862
        41        -0.7266     35.7654    -20.7973      4.7472
        42         2.1713     -6.7768    -35.9694    -13.5250
        43        -0.5598      0.6033    -23.4754     -7.8106
        44        -1.3877     -0.3258     -0.1046     -0.6060
        45        -2.4039     20.0990      5.0202      7.5718
        46        -6.2700    -19.6918    -42.5601    -22.8407
        47        -2.0757     18.1698    -15.9637      0.0434
        48        -1.5499      2.7063     -0.5419      0.2048
        49         5.5734     -9.2962      0.1060     -1.2056
        50        -1.2867     10.1699      1.5667      3.4833
  1/2[<0|del|b>*<b|r|0> + (<0|r|b>*<b|del|0>)*] (Au)
       state          X           Y           Z        Dip. S.   Osc.(frdel)
         1        -6.0196     -0.0400     -0.0162      6.0759      4.0506
         2        -0.0006     -0.0050     -0.0007      0.0062      0.0041
         3        -0.0057     -0.0018     -0.0001      0.0076      0.0051
         4        -0.0373     -0.2071     -0.0016      0.2459      0.1639
         5        -0.2718     -0.0902     -0.0000      0.3621      0.2414
         6        -0.0004     -0.0000     -0.0025      0.0029      0.0020
         7        -0.0007     -0.0001     -0.0001      0.0009      0.0006
         8        -0.0003     -0.0000     -0.0002      0.0005      0.0003
         9        -0.0002     -0.0001     -0.0000      0.0003      0.0002
        10        -0.1650     -0.0491     -0.0036      0.2178      0.1452
        11        -0.0003     -0.0076     -0.0012      0.0091      0.0061
        12        -0.0005     -0.0007     -0.0048      0.0060      0.0040
        13        -0.0628     -0.0051     -0.0021      0.0700      0.0467
        14        -0.0039     -0.0002     -0.0003      0.0044      0.0030
        15        -0.0001     -0.0001     -0.0000      0.0002      0.0001
        16        -0.0020     -0.0007     -0.0002      0.0029      0.0020
        17        -0.0023      0.0000     -0.0004      0.0027      0.0018
        18        -0.0006     -0.0022     -0.0005      0.0034      0.0023
        19        -0.0024     -0.0077     -0.0002      0.0102      0.0068
        20        -0.0014     -0.0020     -0.0002      0.0036      0.0024
        21        -0.0023     -0.0000     -0.0009      0.0031      0.0021
        22        -0.0006     -0.0005     -0.0020      0.0031      0.0021
        23        -0.0004     -0.0032     -0.0003      0.0039      0.0026
        24        -0.0001     -0.0042     -0.0002      0.0045      0.0030
        25        -0.0127     -0.0339     -0.0017      0.0484      0.0322
        26        -0.0092     -0.0560     -0.0038      0.0690      0.0460
        27        -0.0010     -0.0100     -0.0006      0.0116      0.0077
        28        -0.0002     -0.0374     -0.0014      0.0391      0.0261
        29        -0.0000     -0.0021     -0.0000      0.0021      0.0014
        30        -0.0004     -0.0048     -0.0000      0.0052      0.0035
        31        -0.0072     -0.0023     -0.0000      0.0095      0.0064
        32        -0.0004     -0.0004     -0.0002      0.0010      0.0007
        33        -0.0012     -0.0003     -0.0000      0.0015      0.0010
        34        -0.0002     -0.0009     -0.0002      0.0013      0.0009
        35        -0.0043     -0.0043     -0.0019      0.0105      0.0070
        36        -0.0229     -0.0078     -0.0016      0.0323      0.0216
        37        -0.0053     -0.0020     -0.0001      0.0074      0.0049
        38        -0.0002     -0.0000     -0.0001      0.0004      0.0003
        39        -0.0036     -0.0037     -0.0001      0.0074      0.0049
        40        -0.0054     -0.0003     -0.0000      0.0057      0.0038
        41        -0.0002     -0.0071     -0.0013      0.0086      0.0057
        42        -0.0022     -0.0027     -0.0014      0.0063      0.0042
        43        -0.0001     -0.0003     -0.0002      0.0005      0.0004
        44        -0.0001     -0.0000     -0.0000      0.0001      0.0001
        45        -0.0079     -0.0131     -0.0063      0.0273      0.0182
        46        -0.0123     -0.0146     -0.0015      0.0284      0.0189
        47        -0.0031     -0.0037     -0.0006      0.0073      0.0049
        48        -0.0015     -0.0000      0.0000      0.0015      0.0010
        49        -0.0029     -0.0013     -0.0000      0.0042      0.0028
        50        -0.0001     -0.0010     -0.0003      0.0014      0.0009

 Excitation energies and oscillator strengths:
 
 Excited State   1:      Singlet-A      2.8733 eV  431.51 nm  f=4.0290  <S**2>=0.000
     147 ->150        -0.17453
     148 ->149         0.68047
 This state for optimization and/or second-order correction.
 Total Energy, E(TD-HF/TD-DFT) =  -1557.05263545    
 Copying the excited state density for this state as the 1-particle RhoCI density.
 
 Excited State   2:      Singlet-A      3.7551 eV  330.18 nm  f=0.0041  <S**2>=0.000
     146 ->150        -0.16846
     147 ->149         0.64436
     148 ->150        -0.21480
 
 Excited State   3:      Singlet-A      4.0390 eV  306.97 nm  f=0.0051  <S**2>=0.000
     147 ->149         0.19672
     147 ->151        -0.17353
     148 ->150         0.63844
 
 Excited State   4:      Singlet-A      4.3840 eV  282.81 nm  f=0.1595  <S**2>=0.000
     145 ->150        -0.16913
     146 ->149         0.61115
     147 ->150        -0.26670
 
 Excited State   5:      Singlet-A      4.6881 eV  264.46 nm  f=0.2381  <S**2>=0.000
     144 ->149         0.10270
     146 ->149        -0.18002
     147 ->150        -0.37644
     147 ->164         0.11825
     148 ->149        -0.11216
     148 ->151         0.50077
 
 Excited State   6:      Singlet-A      4.8765 eV  254.25 nm  f=0.0023  <S**2>=0.000
     147 ->153        -0.13829
     147 ->156         0.12572
     148 ->152         0.47392
     148 ->154         0.29105
     148 ->156        -0.14751
     148 ->157         0.19985
 
 Excited State   7:      Singlet-A      4.8894 eV  253.58 nm  f=0.0006  <S**2>=0.000
     144 ->150        -0.17515
     145 ->149         0.55335
     145 ->151         0.11350
     146 ->150        -0.29323
     147 ->151         0.10721
 
 Excited State   8:      Singlet-A      4.9575 eV  250.09 nm  f=0.0004  <S**2>=0.000
     147 ->152         0.17809
     147 ->153        -0.10412
     147 ->157         0.12656
     147 ->159        -0.11016
     148 ->153        -0.32448
     148 ->156         0.47242
     148 ->163         0.13214
 
 Excited State   9:      Singlet-A      5.0316 eV  246.41 nm  f=0.0002  <S**2>=0.000
     147 ->152         0.19315
     148 ->152        -0.10523
     148 ->153        -0.34129
     148 ->155         0.34877
     148 ->156        -0.25463
     148 ->157         0.11118
     148 ->158        -0.25763
     148 ->163        -0.11148
 
 Excited State  10:      Singlet-A      5.1112 eV  242.58 nm  f=0.1439  <S**2>=0.000
     146 ->149         0.20069
     147 ->150         0.46641
     148 ->149         0.15015
     148 ->151         0.41278
 
 Excited State  11:      Singlet-A      5.1562 eV  240.46 nm  f=0.0060  <S**2>=0.000
     146 ->152        -0.13018
     147 ->153         0.16803
     147 ->156        -0.20241
     147 ->163         0.10718
     148 ->154         0.28221
     148 ->157        -0.12892
     148 ->159         0.45594
 
 Excited State  12:      Singlet-A      5.1915 eV  238.82 nm  f=0.0041  <S**2>=0.000
     147 ->153         0.18450
     147 ->155        -0.13106
     147 ->156         0.14998
     148 ->152        -0.25939
     148 ->157         0.39600
     148 ->158         0.12577
     148 ->162         0.31560
 
 Excited State  13:      Singlet-A      5.2793 eV  234.85 nm  f=0.0456  <S**2>=0.000
     143 ->150        -0.11957
     144 ->149         0.55000
     145 ->150        -0.28732
     146 ->151         0.11137
     148 ->151        -0.12425
 
 Excited State  14:      Singlet-A      5.3033 eV  233.79 nm  f=0.0029  <S**2>=0.000
     144 ->149         0.10784
     145 ->149        -0.17103
     146 ->150        -0.21418
     147 ->151         0.32283
     148 ->155        -0.17414
     148 ->163        -0.17625
     148 ->164         0.29913
     148 ->165         0.10872
 
 Excited State  15:      Singlet-A      5.3159 eV  233.23 nm  f=0.0001  <S**2>=0.000
     146 ->156        -0.12652
     147 ->151         0.10956
     147 ->157        -0.22549
     147 ->159         0.14081
     148 ->155         0.20506
     148 ->156        -0.10212
     148 ->158         0.29735
     148 ->163         0.35820
     148 ->165         0.13781
 
 Excited State  16:      Singlet-A      5.3930 eV  229.90 nm  f=0.0019  <S**2>=0.000
     146 ->150         0.11304
     146 ->153        -0.13061
     147 ->152         0.14215
     147 ->154        -0.17545
     147 ->157        -0.12637
     148 ->153        -0.21772
     148 ->155        -0.21138
     148 ->156        -0.11494
     148 ->157        -0.10077
     148 ->158         0.24328
     148 ->163        -0.10804
     148 ->164        -0.21016
     148 ->165         0.21451
 
 Excited State  17:      Singlet-A      5.5349 eV  224.01 nm  f=0.0017  <S**2>=0.000
     146 ->150        -0.11025
     146 ->154         0.14421
     147 ->153         0.10873
     147 ->155         0.23737
     147 ->156         0.10946
     148 ->152        -0.13415
     148 ->154         0.35465
     148 ->157        -0.10099
     148 ->159        -0.26783
     148 ->167         0.18514
 
 Excited State  18:      Singlet-A      5.5932 eV  221.67 nm  f=0.0023  <S**2>=0.000
     146 ->150         0.15910
     147 ->158        -0.16880
     147 ->160        -0.14796
     148 ->157         0.17244
     148 ->160         0.32043
     148 ->162        -0.17313
     148 ->164         0.19116
     148 ->166         0.20289
     148 ->167         0.11419
     148 ->171        -0.13890
     148 ->172        -0.11176
     148 ->173         0.10129
 
 Excited State  19:      Singlet-A      5.6065 eV  221.15 nm  f=0.0069  <S**2>=0.000
     145 ->149         0.11470
     146 ->150         0.21354
     147 ->158         0.16719
     147 ->159         0.13532
     148 ->155        -0.14537
     148 ->157        -0.13936
     148 ->158        -0.17181
     148 ->161        -0.16427
     148 ->162         0.21816
     148 ->163         0.12833
     148 ->164         0.23225
     148 ->168         0.12123
     148 ->173         0.13746
 
 Excited State  20:      Singlet-A      5.6204 eV  220.60 nm  f=0.0023  <S**2>=0.000
     147 ->157        -0.10842
     147 ->158         0.15005
     147 ->159        -0.11482
     147 ->160        -0.12358
     148 ->155         0.15761
     148 ->157        -0.13693
     148 ->158         0.16757
     148 ->159        -0.10443
     148 ->161         0.24514
     148 ->162         0.23173
     148 ->163        -0.17924
     148 ->174         0.18032
 
 Excited State  21:      Singlet-A      5.6395 eV  219.85 nm  f=0.0022  <S**2>=0.000
     145 ->149         0.19498
     145 ->151        -0.10554
     146 ->150         0.36276
     147 ->149         0.13169
     147 ->151         0.13445
     147 ->160         0.12111
     148 ->160        -0.27375
     148 ->162        -0.15995
     148 ->164         0.12673
     148 ->172         0.10815
 
 Excited State  22:      Singlet-A      5.6580 eV  219.13 nm  f=0.0022  <S**2>=0.000
     146 ->150         0.10331
     147 ->154        -0.10089
     147 ->161         0.22563
     148 ->155        -0.16963
     148 ->158        -0.11629
     148 ->161         0.34232
     148 ->163         0.21270
     148 ->168        -0.12114
     148 ->170        -0.14282
     148 ->175        -0.11775
 
 Excited State  23:      Singlet-A      5.7710 eV  214.84 nm  f=0.0026  <S**2>=0.000
     143 ->149         0.14385
     146 ->158        -0.12044
     147 ->162        -0.22218
     148 ->153         0.15869
     148 ->156         0.11827
     148 ->158        -0.15928
     148 ->165         0.29449
     148 ->170        -0.20783
     148 ->172         0.18628
     148 ->173         0.12391
     148 ->176         0.15221
 
 Excited State  24:      Singlet-A      5.8128 eV  213.29 nm  f=0.0030  <S**2>=0.000
     143 ->149         0.46359
     144 ->150        -0.23075
     145 ->151         0.13993
     147 ->151        -0.21190
     148 ->176        -0.12018
 
 Excited State  25:      Singlet-A      5.8164 eV  213.16 nm  f=0.0325  <S**2>=0.000
     146 ->151        -0.13210
     147 ->151        -0.15989
     147 ->160         0.16725
     147 ->164        -0.12564
     148 ->160        -0.24040
     148 ->167         0.10554
     148 ->171        -0.18974
     148 ->173         0.25494
     148 ->175         0.12488
     148 ->176        -0.11969
     148 ->177         0.24162
     148 ->178        -0.10257
 
 Excited State  26:      Singlet-A      5.8527 eV  211.84 nm  f=0.0462  <S**2>=0.000
     143 ->149         0.14518
     145 ->150         0.12598
     146 ->151        -0.17269
     147 ->161        -0.14350
     147 ->164        -0.17743
     148 ->161        -0.15867
     148 ->165        -0.10807
     148 ->167         0.13665
     148 ->168         0.10244
     148 ->170        -0.13037
     148 ->173        -0.22026
     148 ->174         0.15387
     148 ->177         0.25483
 
 Excited State  27:      Singlet-A      5.8813 eV  210.81 nm  f=0.0080  <S**2>=0.000
     146 ->152        -0.10134
     146 ->159         0.14093
     147 ->151        -0.10583
     147 ->163         0.20861
     148 ->152         0.20838
     148 ->154        -0.18515
     148 ->167         0.19478
     148 ->168         0.10948
     148 ->171         0.19483
     148 ->174        -0.15557
     148 ->177        -0.10946
     148 ->178         0.13203
     148 ->184         0.13335
 
 Excited State  28:      Singlet-A      5.9012 eV  210.10 nm  f=0.0264  <S**2>=0.000
     145 ->150         0.10753
     146 ->151        -0.12354
     147 ->164        -0.14428
     147 ->166         0.12522
     148 ->152        -0.10122
     148 ->160         0.11463
     148 ->161         0.10801
     148 ->166        -0.21835
     148 ->174        -0.12413
     148 ->177        -0.14088
     148 ->178         0.38633
 
 Excited State  29:      Singlet-A      5.9440 eV  208.59 nm  f=0.0013  <S**2>=0.000
     147 ->151         0.36019
     147 ->178         0.10990
     148 ->150         0.12118
     148 ->164        -0.29677
     148 ->168         0.14537
     148 ->170         0.10360
     148 ->173         0.14985
     148 ->174        -0.14487
     148 ->178         0.10654
 
 Excited State  30:      Singlet-A      5.9590 eV  208.06 nm  f=0.0035  <S**2>=0.000
     146 ->153        -0.16006
     147 ->152         0.30701
     147 ->154         0.12166
     148 ->153         0.24636
     148 ->156        -0.10924
     148 ->160        -0.10752
     148 ->164         0.10155
     148 ->166         0.11793
     148 ->170        -0.14025
     148 ->172        -0.11311
     148 ->178         0.15067
     148 ->180         0.11383
 
 Excited State  31:      Singlet-A      5.9947 eV  206.82 nm  f=0.0061  <S**2>=0.000
     145 ->150         0.11015
     147 ->152        -0.14320
     147 ->153         0.19056
     147 ->163        -0.16731
     147 ->166        -0.12294
     148 ->153        -0.14409
     148 ->159        -0.11486
     148 ->160        -0.14338
     148 ->166         0.26037
     148 ->167        -0.12741
     148 ->176         0.13509
     148 ->177        -0.12482
     148 ->179         0.11474
     148 ->183         0.12493
 
 Excited State  32:      Singlet-A      6.0264 eV  205.74 nm  f=0.0007  <S**2>=0.000
     144 ->149         0.11823
     145 ->150         0.12763
     147 ->153        -0.16836
     147 ->155         0.10995
     147 ->163         0.12055
     147 ->171         0.11669
     148 ->152        -0.14797
     148 ->154        -0.12326
     148 ->171         0.14159
     148 ->173         0.15318
     148 ->174         0.19346
     148 ->181        -0.19531
     148 ->182         0.23252
 
 Excited State  33:      Singlet-A      6.0285 eV  205.66 nm  f=0.0011  <S**2>=0.000
     146 ->152        -0.12918
     147 ->152         0.30192
     147 ->154         0.19069
     147 ->156        -0.11265
     147 ->167         0.12762
     147 ->169        -0.11873
     148 ->152         0.11590
     148 ->155        -0.14576
     148 ->159        -0.11467
     148 ->160         0.10866
     148 ->166        -0.11278
     148 ->168        -0.19941
     148 ->169        -0.12500
     148 ->170         0.10671
     148 ->172         0.11323
 
 Excited State  34:      Singlet-A      6.0631 eV  204.49 nm  f=0.0010  <S**2>=0.000
     147 ->153        -0.17232
     147 ->156         0.11335
     147 ->157         0.10956
     147 ->168         0.12406
     147 ->174        -0.13041
     147 ->182        -0.10615
     148 ->159         0.10915
     148 ->160        -0.10090
     148 ->163         0.12471
     148 ->170         0.18952
     148 ->171        -0.15911
     148 ->172         0.10464
     148 ->176         0.24829
     148 ->181        -0.11331
     148 ->182        -0.12949
 
 Excited State  35:      Singlet-A      6.0768 eV  204.03 nm  f=0.0072  <S**2>=0.000
     146 ->152         0.10365
     147 ->153        -0.14365
     147 ->156         0.15742
     147 ->165        -0.15523
     148 ->155        -0.10871
     148 ->157        -0.12217
     148 ->159         0.15477
     148 ->162         0.13739
     148 ->166         0.14978
     148 ->167         0.17134
     148 ->168        -0.15072
     148 ->177        -0.13579
     148 ->180         0.13250
     148 ->181         0.14994
     148 ->183         0.11140
     148 ->184         0.12552
 
 Excited State  36:      Singlet-A      6.0970 eV  203.35 nm  f=0.0227  <S**2>=0.000
     144 ->149        -0.13031
     145 ->150        -0.13355
     147 ->153         0.12579
     147 ->156        -0.10295
     147 ->172         0.10291
     148 ->167         0.20650
     148 ->169         0.21403
     148 ->171        -0.17382
     148 ->172        -0.10382
     148 ->174         0.12330
     148 ->177        -0.17604
     148 ->179        -0.14068
 
 Excited State  37:      Singlet-A      6.1075 eV  203.00 nm  f=0.0051  <S**2>=0.000
     144 ->149         0.17995
     145 ->150         0.23494
     146 ->149         0.10024
     147 ->153         0.11777
     147 ->154        -0.12819
     147 ->155        -0.11302
     147 ->156         0.15043
     148 ->155         0.12445
     148 ->157        -0.13623
     148 ->169         0.18391
     148 ->175        -0.11897
     148 ->178        -0.13840
 
 Excited State  38:      Singlet-A      6.1258 eV  202.40 nm  f=0.0003  <S**2>=0.000
     144 ->149        -0.10657
     145 ->150        -0.13885
     147 ->167         0.11090
     147 ->171        -0.14760
     148 ->161        -0.14053
     148 ->165        -0.17168
     148 ->170        -0.10619
     148 ->172         0.18019
     148 ->175        -0.11068
     148 ->176        -0.12812
     148 ->180        -0.17617
     148 ->183         0.13458
 
 Excited State  39:      Singlet-A      6.1349 eV  202.10 nm  f=0.0050  <S**2>=0.000
     142 ->149         0.20207
     143 ->150         0.13024
     144 ->149        -0.10489
     145 ->150        -0.17852
     147 ->156         0.19219
     147 ->165        -0.14997
     148 ->157        -0.13673
     148 ->168        -0.19863
     148 ->177         0.13523
     148 ->178         0.10902
     148 ->182         0.11695
     148 ->187         0.15642
 
 Excited State  40:      Singlet-A      6.1504 eV  201.59 nm  f=0.0040  <S**2>=0.000
     146 ->153         0.12009
     147 ->154         0.19467
     147 ->156         0.15548
     147 ->167         0.13328
     147 ->169         0.15936
     148 ->155        -0.14892
     148 ->166         0.12169
     148 ->167        -0.12687
     148 ->168         0.11144
     148 ->169         0.27006
     148 ->172         0.18958
     148 ->186        -0.12221
 
 Excited State  41:      Singlet-A      6.1691 eV  200.98 nm  f=0.0058  <S**2>=0.000
     141 ->149         0.11426
     141 ->150        -0.21485
     142 ->149         0.34359
     142 ->151         0.14288
     143 ->150         0.14253
     147 ->156        -0.11012
     148 ->177        -0.15298
     148 ->179        -0.14641
     148 ->181         0.13216
 
 Excited State  42:      Singlet-A      6.1763 eV  200.74 nm  f=0.0046  <S**2>=0.000
     147 ->155        -0.24860
     147 ->156         0.25829
     147 ->158         0.11950
     147 ->163         0.10460
     147 ->165         0.17217
     148 ->162        -0.22919
     148 ->169        -0.18352
     148 ->174         0.17270
     148 ->177        -0.12570
     148 ->187        -0.15000
 
 Excited State  43:      Singlet-A      6.1836 eV  200.50 nm  f=0.0004  <S**2>=0.000
     141 ->149        -0.13424
     146 ->156         0.14464
     146 ->165        -0.11053
     147 ->157         0.22887
     147 ->159        -0.11619
     147 ->162         0.14405
     148 ->156        -0.16138
     148 ->158         0.19493
     148 ->165        -0.17134
     148 ->170        -0.12100
     148 ->171         0.13497
     148 ->173         0.12960
     148 ->176         0.13455
 
 Excited State  44:      Singlet-A      6.2076 eV  199.73 nm  f=0.0001  <S**2>=0.000
     132 ->150         0.11050
     133 ->149         0.18129
     139 ->149         0.10187
     141 ->149         0.39840
     141 ->150        -0.10918
     141 ->151         0.16910
     142 ->149        -0.13512
     142 ->150        -0.28898
 
 Excited State  45:      Singlet-A      6.2521 eV  198.31 nm  f=0.0181  <S**2>=0.000
     147 ->154        -0.11812
     147 ->157        -0.10795
     147 ->158         0.10973
     147 ->176        -0.12273
     148 ->161        -0.10674
     148 ->168        -0.11438
     148 ->169         0.15528
     148 ->177         0.13014
     148 ->179         0.16373
     148 ->184         0.20999
     148 ->186        -0.10483
     148 ->188        -0.19347
 
 Excited State  46:      Singlet-A      6.2621 eV  197.99 nm  f=0.0186  <S**2>=0.000
     147 ->154         0.14793
     147 ->157         0.16747
     147 ->167        -0.10365
     147 ->171        -0.14308
     148 ->165         0.15569
     148 ->175        -0.14922
     148 ->179         0.22193
     148 ->181        -0.15832
     148 ->184         0.11225
     148 ->187        -0.19186
 
 Excited State  47:      Singlet-A      6.2692 eV  197.77 nm  f=0.0046  <S**2>=0.000
     146 ->154         0.18610
     147 ->155         0.27711
     147 ->156         0.18215
     147 ->157        -0.14972
     148 ->154        -0.20118
     148 ->159         0.10458
     148 ->165        -0.14019
     148 ->166        -0.11006
     148 ->176         0.12927
     148 ->179         0.13607
 
 Excited State  48:      Singlet-A      6.2818 eV  197.37 nm  f=0.0010  <S**2>=0.000
     146 ->154         0.12534
     146 ->156         0.11500
     147 ->155         0.16281
     147 ->157         0.22390
     147 ->158         0.16012
     148 ->156        -0.10184
     148 ->157         0.11312
     148 ->165         0.18535
     148 ->174         0.14100
     148 ->176        -0.12733
     148 ->181         0.13553
 
 Excited State  49:      Singlet-A      6.2874 eV  197.19 nm  f=0.0029  <S**2>=0.000
     147 ->154         0.23894
     147 ->158         0.12570
     147 ->159         0.11800
     147 ->168        -0.10567
     147 ->170        -0.11717
     148 ->163        -0.18293
     148 ->168        -0.11034
     148 ->172        -0.13652
     148 ->173         0.11776
     148 ->175        -0.21047
     148 ->182        -0.12185
     148 ->187         0.14494
     148 ->188        -0.14105
 
 Excited State  50:      Singlet-A      6.3515 eV  195.20 nm  f=0.0010  <S**2>=0.000
     139 ->149         0.10922
     144 ->150         0.13064
     147 ->177        -0.15230
     148 ->175        -0.20539
     148 ->180         0.26154
     148 ->182        -0.11382
     148 ->183        -0.15850
     148 ->186        -0.10807
     148 ->190        -0.11531
     148 ->192         0.13025
 SavETr:  write IOETrn=   770 NScale= 10 NData=  16 NLR=1 NState=   50 LETran=     910.

 **********************************************************************

            Population analysis using the SCF Density.

 **********************************************************************

 Orbital symmetries:
       Occupied  (A) (A) (A) (A) (A) (A) (A) (A) (A) (A) (A) (A)
                 (A) (A) (A) (A) (A) (A) (A) (A) (A) (A) (A) (A)
                 (A) (A) (A) (A) (A) (A) (A) (A) (A) (A) (A) (A)
                 (A) (A) (A) (A) (A) (A) (A) (A) (A) (A) (A) (A)
                 (A) (A) (A) (A) (A) (A) (A) (A) (A) (A) (A) (A)
                 (A) (A) (A) (A) (A) (A) (A) (A) (A) (A) (A) (A)
                 (A) (A) (A) (A) (A) (A) (A) (A) (A) (A) (A) (A)
                 (A) (A) (A) (A) (A) (A) (A) (A) (A) (A) (A) (A)
                 (A) (A) (A) (A) (A) (A) (A) (A) (A) (A) (A) (A)
                 (A) (A) (A) (A) (A) (A) (A) (A) (A) (A) (A) (A)
                 (A) (A) (A) (A) (A) (A) (A) (A) (A) (A) (A) (A)
                 (A) (A) (A) (A) (A) (A) (A) (A) (A) (A) (A) (A)
                 (A) (A) (A) (A)
       Virtual   (A) (A) (A) (A) (A) (A) (A) (A) (A) (A) (A) (A)
                 (A) (A) (A) (A) (A) (A) (A) (A) (A) (A) (A) (A)
                 (A) (A) (A) (A) (A) (A) (A) (A) (A) (A) (A) (A)
                 (A) (A) (A) (A) (A) (A) (A) (A) (A) (A) (A) (A)
                 (A) (A) (A) (A) (A) (A) (A) (A) (A) (A) (A) (A)
                 (A) (A) (A) (A) (A) (A) (A) (A) (A) (A) (A) (A)
                 (A) (A) (A) (A) (A) (A) (A) (A) (A) (A) (A) (A)
                 (A) (A) (A) (A) (A) (A) (A) (A) (A) (A) (A) (A)
                 (A) (A) (A) (A) (A) (A) (A) (A) (A) (A) (A) (A)
                 (A) (A) (A) (A) (A) (A) (A) (A) (A) (A) (A) (A)
                 (A) (A) (A) (A) (A) (A) (A) (A) (A) (A) (A) (A)
                 (A) (A) (A) (A) (A) (A) (A) (A) (A) (A) (A) (A)
                 (A) (A) (A) (A) (A) (A) (A) (A) (A) (A) (A) (A)
                 (A) (A) (A) (A) (A) (A) (A) (A) (A) (A) (A) (A)
                 (A) (A) (A) (A) (A) (A) (A) (A) (A) (A) (A) (A)
                 (A) (A) (A) (A) (A) (A) (A) (A) (A) (A) (A) (A)
                 (A) (A) (A) (A) (A) (A) (A) (A) (A) (A) (A) (A)
                 (A) (A) (A) (A) (A) (A) (A) (A) (A) (A) (A) (A)
                 (A) (A) (A) (A) (A) (A) (A) (A) (A) (A) (A) (A)
                 (A) (A) (A) (A) (A) (A) (A) (A) (A) (A) (A) (A)
                 (A) (A) (A) (A) (A) (A) (A) (A) (A) (A) (A) (A)
                 (A) (A) (A) (A) (A) (A) (A) (A) (A) (A) (A) (A)
                 (A) (A) (A) (A) (A) (A) (A) (A) (A) (A) (A) (A)
                 (A) (A) (A) (A) (A) (A) (A) (A) (A) (A) (A) (A)
                 (A) (A) (A) (A) (A) (A) (A) (A) (A) (A) (A) (A)
                 (A) (A) (A) (A) (A) (A) (A) (A) (A) (A) (A) (A)
                 (A) (A) (A) (A) (A) (A) (A) (A) (A) (A) (A) (A)
                 (A) (A) (A) (A) (A) (A) (A) (A) (A) (A) (A) (A)
                 (A) (A) (A) (A) (A) (A) (A) (A) (A) (A) (A) (A)
                 (A) (A) (A) (A) (A) (A) (A) (A) (A) (A) (A) (A)
                 (A) (A) (A) (A) (A) (A) (A) (A) (A) (A) (A) (A)
                 (A) (A) (A) (A) (A) (A) (A) (A) (A) (A) (A) (A)
                 (A) (A) (A) (A) (A) (A) (A) (A) (A) (A) (A) (A)
                 (A) (A) (A) (A) (A) (A) (A) (A) (A) (A) (A) (A)
                 (A) (A) (A) (A) (A) (A) (A) (A) (A) (A) (A) (A)
                 (A) (A) (A) (A) (A) (A) (A) (A) (A) (A) (A) (A)
                 (A) (A) (A) (A) (A) (A) (A) (A) (A) (A) (A) (A)
                 (A) (A) (A) (A) (A) (A) (A) (A) (A) (A) (A) (A)
                 (A) (A) (A) (A) (A) (A) (A) (A) (A) (A) (A) (A)
                 (A) (A) (A) (A) (A) (A) (A) (A) (A) (A) (A) (A)
                 (A) (A) (A) (A) (A) (A) (A) (A) (A) (A) (A) (A)
                 (A) (A) (A) (A) (A) (A) (A) (A) (A) (A) (A) (A)
                 (A) (A) (A) (A) (A) (A) (A) (A) (A) (A) (A) (A)
                 (A) (A) (A) (A) (A) (A) (A) (A) (A) (A) (A) (A)
                 (A) (A) (A) (A) (A) (A) (A) (A) (A) (A) (A) (A)
                 (A) (A) (A) (A) (A) (A) (A) (A) (A) (A) (A) (A)
                 (A) (A) (A) (A) (A) (A) (A) (A) (A) (A) (A) (A)
                 (A) (A) (A) (A) (A) (A) (A) (A) (A) (A) (A) (A)
                 (A) (A) (A) (A) (A) (A) (A) (A) (A) (A) (A) (A)
                 (A) (A) (A) (A) (A) (A) (A) (A) (A) (A) (A) (A)
                 (A) (A) (A) (A) (A) (A) (A) (A) (A) (A) (A) (A)
                 (A) (A) (A) (A) (A) (A) (A) (A) (A) (A) (A) (A)
                 (A) (A) (A) (A) (A) (A) (A) (A) (A) (A) (A) (A)
                 (A) (A) (A) (A) (A) (A) (A) (A) (A) (A) (A) (A)
                 (A) (A) (A) (A) (A) (A) (A) (A) (A) (A) (A) (A)
                 (A) (A) (A) (A) (A) (A) (A) (A) (A) (A) (A) (A)
                 (A) (A) (A) (A) (A) (A) (A) (A) (A) (A) (A) (A)
                 (A) (A) (A) (A) (A) (A) (A) (A) (A) (A) (A) (A)
                 (A) (A) (A) (A) (A) (A) (A) (A) (A) (A) (A) (A)
                 (A) (A) (A) (A)
 The electronic state is 1-A.
 Alpha  occ. eigenvalues --  -10.56877 -10.56810 -10.56420 -10.56290 -10.56279
 Alpha  occ. eigenvalues --  -10.56272 -10.55818 -10.55728 -10.55707 -10.55673
 Alpha  occ. eigenvalues --  -10.55663 -10.55651 -10.55616 -10.55567 -10.55508
 Alpha  occ. eigenvalues --  -10.55362 -10.55314 -10.55253 -10.55140 -10.55125
 Alpha  occ. eigenvalues --  -10.55023 -10.55007 -10.54936 -10.54916 -10.54760
 Alpha  occ. eigenvalues --  -10.54356 -10.54335 -10.54302 -10.54133 -10.54072
 Alpha  occ. eigenvalues --  -10.53865 -10.53861 -10.53813 -10.53795 -10.53771
 Alpha  occ. eigenvalues --  -10.53714 -10.53629 -10.53522 -10.53322 -10.53241
 Alpha  occ. eigenvalues --   -0.95854  -0.95841  -0.94654  -0.94108  -0.92999
 Alpha  occ. eigenvalues --   -0.92367  -0.89830  -0.88820  -0.88647  -0.88351
 Alpha  occ. eigenvalues --   -0.87586  -0.85757  -0.84484  -0.82361  -0.82019
 Alpha  occ. eigenvalues --   -0.79970  -0.78186  -0.78110  -0.77800  -0.77573
 Alpha  occ. eigenvalues --   -0.77468  -0.77358  -0.76540  -0.76350  -0.76105
 Alpha  occ. eigenvalues --   -0.72377  -0.70610  -0.68841  -0.67191  -0.65907
[...]
 Alpha  occ. eigenvalues --   -0.46557  -0.46307  -0.46132  -0.45825  -0.45340
 Alpha  occ. eigenvalues --   -0.45276  -0.45020  -0.44760  -0.43793  -0.43658
 Alpha  occ. eigenvalues --   -0.43452  -0.43214  -0.43074  -0.42555  -0.42356
 Alpha  occ. eigenvalues --   -0.41772  -0.41237  -0.41177  -0.41027  -0.40794
 Alpha  occ. eigenvalues --   -0.40738  -0.40318  -0.40058  -0.39853  -0.39666
 Alpha  occ. eigenvalues --   -0.39336  -0.39139  -0.38903  -0.38859  -0.37861
 Alpha  occ. eigenvalues --   -0.37753  -0.37046  -0.36753  -0.35852  -0.35318
 Alpha  occ. eigenvalues --   -0.34735  -0.34460  -0.33201  -0.30654  -0.28959
 Alpha  occ. eigenvalues --   -0.26830  -0.24321  -0.21775
 Alpha virt. eigenvalues --   -0.05903  -0.02437   0.00756   0.01334   0.01448
 Alpha virt. eigenvalues --    0.01779   0.01906   0.02162   0.02210   0.02495
 Alpha virt. eigenvalues --    0.02625   0.02934   0.03156   0.03327   0.03443
 Alpha virt. eigenvalues --    0.03733   0.03931   0.04311   0.04481   0.04585
 Alpha virt. eigenvalues --    0.04684   0.04853   0.04989   0.05085   0.05397
 Alpha virt. eigenvalues --    0.05454   0.05521   0.05885   0.06011   0.06230
 Alpha virt. eigenvalues --    0.06513   0.06720   0.06833   0.06849   0.06863
 Alpha virt. eigenvalues --    0.07084   0.07195   0.07265   0.07326   0.07401
 Alpha virt. eigenvalues --    0.07873   0.08041   0.08278   0.08356   0.08588
 Alpha virt. eigenvalues --    0.08689   0.08884   0.09080   0.09259   0.09454
 Alpha virt. eigenvalues --    0.09694   0.09774   0.09904   0.10348   0.10589
 Alpha virt. eigenvalues --    0.10860   0.11184   0.11263   0.11352   0.11432
 Alpha virt. eigenvalues --    0.11778   0.11841   0.12021   0.12197   0.12253
 Alpha virt. eigenvalues --    0.12623   0.12851   0.13125   0.13342   0.13470
 Alpha virt. eigenvalues --    0.13605   0.13703   0.13854   0.14123   0.14299
 Alpha virt. eigenvalues --    0.14399   0.14618   0.14763   0.14836   0.14915
 Alpha virt. eigenvalues --    0.15321   0.15794   0.15920   0.16113   0.16227
 Alpha virt. eigenvalues --    0.16499   0.16632   0.17052   0.17103   0.17251
 Alpha virt. eigenvalues --    0.17494   0.17614   0.17764   0.17775   0.18178
 Alpha virt. eigenvalues --    0.18271   0.18400   0.18465   0.18822   0.18916
 Alpha virt. eigenvalues --    0.18971   0.19250   0.19336   0.19494   0.19795
 Alpha virt. eigenvalues --    0.19855   0.19997   0.20044   0.20225   0.20328
 Alpha virt. eigenvalues --    0.20400   0.20762   0.20968   0.21218   0.21346
 Alpha virt. eigenvalues --    0.21523   0.21642   0.21800   0.21884   0.22037
 Alpha virt. eigenvalues --    0.22163   0.22220   0.22506   0.22579   0.22731
 Alpha virt. eigenvalues --    0.22839   0.23085   0.23110   0.23250   0.23339
 Alpha virt. eigenvalues --    0.23495   0.23712   0.23881   0.24002   0.24110
 Alpha virt. eigenvalues --    0.24289   0.24416   0.24581   0.24906   0.25299
 Alpha virt. eigenvalues --    0.25559   0.25661   0.25786   0.25952   0.26073
 Alpha virt. eigenvalues --    0.26175   0.26411   0.26528   0.26825   0.26978
 Alpha virt. eigenvalues --    0.27135   0.27213   0.27468   0.27791   0.28038
 Alpha virt. eigenvalues --    0.28174   0.28290   0.28501   0.28588   0.28672
 Alpha virt. eigenvalues --    0.28976   0.29136   0.29443   0.29496   0.29726
 Alpha virt. eigenvalues --    0.29802   0.29855   0.30023   0.30224   0.30377
 Alpha virt. eigenvalues --    0.30601   0.30716   0.30883   0.31077   0.31253
 Alpha virt. eigenvalues --    0.31437   0.31637   0.31706   0.32075   0.32322
 Alpha virt. eigenvalues --    0.32388   0.32697   0.32852   0.33105   0.33648
 Alpha virt. eigenvalues --    0.33804   0.33904   0.34140   0.34257   0.34669
 Alpha virt. eigenvalues --    0.34888   0.35036   0.35320   0.35526   0.35700
 Alpha virt. eigenvalues --    0.35768   0.35884   0.36276   0.36443   0.36849
 Alpha virt. eigenvalues --    0.36964   0.37262   0.37541   0.37810   0.37827
 Alpha virt. eigenvalues --    0.38241   0.38578   0.38689   0.38937   0.39270
 Alpha virt. eigenvalues --    0.39293   0.39620   0.39833   0.40011   0.40219
 Alpha virt. eigenvalues --    0.40541   0.40973   0.41148   0.41726   0.42160
 Alpha virt. eigenvalues --    0.42455   0.42558   0.42878   0.43277   0.43988
 Alpha virt. eigenvalues --    0.44269   0.44922   0.45004   0.45336   0.45648
 Alpha virt. eigenvalues --    0.46270   0.46589   0.47506   0.47584   0.48078
 Alpha virt. eigenvalues --    0.48922   0.49800   0.50240   0.50680   0.51574
 Alpha virt. eigenvalues --    0.52063   0.52405   0.53395   0.53690   0.54025
 Alpha virt. eigenvalues --    0.54644   0.55286   0.55631   0.56001   0.56713
 Alpha virt. eigenvalues --    0.56986   0.58110   0.59153   0.59568   0.60260
 Alpha virt. eigenvalues --    0.61029   0.68032   0.68481   0.69446   0.69618
 Alpha virt. eigenvalues --    0.69765   0.69816   0.70309   0.70721   0.71231
 Alpha virt. eigenvalues --    0.71381   0.71962   0.72339   0.72626   0.72719
 Alpha virt. eigenvalues --    0.73178   0.73622   0.73938   0.74502   0.74774
 Alpha virt. eigenvalues --    0.75042   0.75122   0.75633   0.75866   0.75882
 Alpha virt. eigenvalues --    0.76180   0.76607   0.76988   0.77399   0.77526
 Alpha virt. eigenvalues --    0.77634   0.77859   0.78433   0.78995   0.79235
 Alpha virt. eigenvalues --    0.79379   0.79566   0.79895   0.80180   0.80475
 Alpha virt. eigenvalues --    0.80567   0.80823   0.81196   0.81382   0.81770
 Alpha virt. eigenvalues --    0.81883   0.82265   0.82415   0.82670   0.82780
 Alpha virt. eigenvalues --    0.83082   0.83340   0.83529   0.83791   0.84205
 Alpha virt. eigenvalues --    0.84412   0.84563   0.84741   0.85090   0.85233
 Alpha virt. eigenvalues --    0.85644   0.85695   0.86138   0.86457   0.86784
 Alpha virt. eigenvalues --    0.86954   0.87099   0.87490   0.87999   0.88370
 Alpha virt. eigenvalues --    0.88956   0.89014   0.89233   0.89629   0.89992
 Alpha virt. eigenvalues --    0.90158   0.90671   0.91067   0.91589   0.92407
 Alpha virt. eigenvalues --    0.93104   0.93491   0.94098   0.94411   0.95139
 Alpha virt. eigenvalues --    0.95272   0.95710   0.96396   0.96693   0.97811
 Alpha virt. eigenvalues --    0.98809   0.99291   0.99538   0.99790   1.00003
 Alpha virt. eigenvalues --    1.01073   1.01521   1.01922   1.02379   1.02581
 Alpha virt. eigenvalues --    1.02680   1.03170   1.03295   1.03619   1.03930
 Alpha virt. eigenvalues --    1.04304   1.04664   1.05232   1.05316   1.05604
 Alpha virt. eigenvalues --    1.06029   1.06092   1.06476   1.06810   1.06915
 Alpha virt. eigenvalues --    1.07208   1.07807   1.08356   1.08666   1.08947
 Alpha virt. eigenvalues --    1.09101   1.09893   1.10037   1.10342   1.10673
 Alpha virt. eigenvalues --    1.11112   1.11622   1.11821   1.12352   1.12512
 Alpha virt. eigenvalues --    1.12652   1.12830   1.14048   1.14099   1.14334
 Alpha virt. eigenvalues --    1.15106   1.15507   1.15540   1.16021   1.16978
 Alpha virt. eigenvalues --    1.17066   1.17762   1.18170   1.18574   1.18929
 Alpha virt. eigenvalues --    1.19462   1.20085   1.20249   1.20410   1.20833
 Alpha virt. eigenvalues --    1.21145   1.21417   1.21757   1.21959   1.22567
 Alpha virt. eigenvalues --    1.22862   1.23062   1.23273   1.23609   1.23997
 Alpha virt. eigenvalues --    1.24172   1.24330   1.24722   1.25055   1.25651
 Alpha virt. eigenvalues --    1.26159   1.26549   1.26802   1.26958   1.27057
 Alpha virt. eigenvalues --    1.27460   1.27857   1.28214   1.28534   1.28782
 Alpha virt. eigenvalues --    1.29510   1.29760   1.30231   1.30397   1.30473
 Alpha virt. eigenvalues --    1.30972   1.33255   1.34111   1.34451   1.35266
 Alpha virt. eigenvalues --    1.35713   1.36249   1.36575   1.36933   1.37104
 Alpha virt. eigenvalues --    1.37421   1.37633   1.38198   1.38490   1.39826
 Alpha virt. eigenvalues --    1.40653   1.41265   1.41860   1.42572   1.43752
 Alpha virt. eigenvalues --    1.44137   1.45811   1.46481   1.47197   1.47540
 Alpha virt. eigenvalues --    1.48105   1.49034   1.50656   1.51428   1.52329
 Alpha virt. eigenvalues --    1.52714   1.53355   1.53877   1.54618   1.55530
 Alpha virt. eigenvalues --    1.56164   1.57694   1.57963   1.58310   1.59137
 Alpha virt. eigenvalues --    1.61546   1.61995   1.62811   1.63042   1.63888
 Alpha virt. eigenvalues --    1.64011   1.64298   1.65964   1.67696   1.68290
 Alpha virt. eigenvalues --    1.69174   1.69345   1.70799   1.71165   1.71929
 Alpha virt. eigenvalues --    1.72696   1.73750   1.73890   1.76283   1.76791
 Alpha virt. eigenvalues --    1.77828   1.78149   1.79439   1.79508   1.80785
 Alpha virt. eigenvalues --    1.82969   1.84149   1.84463   1.85040   1.85937
 Alpha virt. eigenvalues --    1.86983   1.87429   1.87655   1.88221   1.89080
 Alpha virt. eigenvalues --    1.89769   1.90945   1.91304   1.91626   1.92112
 Alpha virt. eigenvalues --    1.92587   1.93067   1.93474   1.94111   1.94686
 Alpha virt. eigenvalues --    1.95246   1.95495   1.95645   1.96281   1.97024
 Alpha virt. eigenvalues --    1.97543   1.98882   1.99553   2.00432   2.01004
 Alpha virt. eigenvalues --    2.01052   2.01114   2.01500   2.01555   2.02283
 Alpha virt. eigenvalues --    2.03077   2.03680   2.04697   2.05009   2.05498
 Alpha virt. eigenvalues --    2.06020   2.06630   2.06824   2.07296   2.07510
 Alpha virt. eigenvalues --    2.08170   2.08608   2.09061   2.09350   2.09549
 Alpha virt. eigenvalues --    2.11164   2.12414   2.12796   2.13486   2.14200
 Alpha virt. eigenvalues --    2.14369   2.15776   2.16292   2.16818   2.18051
 Alpha virt. eigenvalues --    2.19473   2.19824   2.20829   2.21580   2.22458
 Alpha virt. eigenvalues --    2.23110   2.23679   2.24058   2.24555   2.26227
 Alpha virt. eigenvalues --    2.26866   2.27254   2.27796   2.29610   2.30033
 Alpha virt. eigenvalues --    2.30310   2.31214   2.31871   2.32106   2.32485
 Alpha virt. eigenvalues --    2.32673   2.33044   2.33370   2.34097   2.34205
 Alpha virt. eigenvalues --    2.34876   2.35407   2.35641   2.35727   2.36099
 Alpha virt. eigenvalues --    2.36545   2.36692   2.37456   2.37580   2.38475
 Alpha virt. eigenvalues --    2.38555   2.39019   2.39628   2.39870   2.40554
 Alpha virt. eigenvalues --    2.41646   2.42411   2.42689   2.43379   2.43967
 Alpha virt. eigenvalues --    2.45932   2.46587   2.46828   2.47551   2.48321
 Alpha virt. eigenvalues --    2.49244   2.50268   2.50664   2.51195   2.52451
 Alpha virt. eigenvalues --    2.52897   2.52985   2.53567   2.54106   2.54909
 Alpha virt. eigenvalues --    2.55190   2.55450   2.56140   2.56310   2.56844
 Alpha virt. eigenvalues --    2.57247   2.57904   2.58641   2.59396   2.59653
 Alpha virt. eigenvalues --    2.59729   2.60480   2.61073   2.61729   2.62373
 Alpha virt. eigenvalues --    2.63848   2.66013   2.66132   2.71428   2.71698
 Alpha virt. eigenvalues --    2.74035   2.74939   2.76788   2.77252   2.79706
 Alpha virt. eigenvalues --    2.80393   2.82302   2.83002   2.85989   2.86705
 Alpha virt. eigenvalues --    2.88967   2.89622   2.91534   2.93930   2.96307
 Alpha virt. eigenvalues --    2.97010   2.97538   2.98891   2.99770   3.00902
 Alpha virt. eigenvalues --    3.03179   3.03697   3.08210   3.09076   3.11275
 Alpha virt. eigenvalues --    3.12419   3.17046   3.19110   3.20596   3.21968
 Alpha virt. eigenvalues --    3.24848   3.25112   4.23242   4.23901   4.24549
 Alpha virt. eigenvalues --    4.25540   4.27161   4.28886   4.30859   4.31453
 Alpha virt. eigenvalues --    4.32275   4.33018   4.34786   4.35842   4.37841
 Alpha virt. eigenvalues --    4.37941   4.39306   4.39701   4.40399   4.40923
 Alpha virt. eigenvalues --    4.42029   4.42386   4.44674   4.45746   4.46144
 Alpha virt. eigenvalues --    4.46846   4.47339   4.49923   4.50790   4.52557
 Alpha virt. eigenvalues --    4.52719   4.53464   4.59878   4.60816   4.65460
 Alpha virt. eigenvalues --    4.66794   4.68594   4.70000   4.72643   4.73124
 Alpha virt. eigenvalues --    4.79577   4.80116
          Condensed to atoms (all electrons):
 Mulliken charges:
               1
     1  C   -0.938983
     2  C   -0.444193
     3  C   -0.014652
     4  C   -0.161915
     5  C   -0.598845
     6  C   -0.493640
     7  C    0.941868
     8  C    0.475849
     9  C   -0.595861
    10  C   -0.760469
    11  C   -0.295940
    12  C   -0.401638
    13  C   -0.509996
    14  C   -0.507110
    15  C   -0.500505
    16  C   -0.435870
    17  C   -0.252278
    18  C   -0.147054
    19  C   -0.670448
    20  C   -0.561951
    21  C   -0.376586
    22  C   -0.347773
    23  C    0.602032
    24  C    0.614153
    25  C   -1.155339
    26  C   -1.158580
    27  C   -0.332844
    28  C   -0.360600
    29  C   -0.387078
    30  C   -0.342482
    31  C    0.194838
    32  C    0.210965
    33  C    0.623606
    34  C    0.535413
    35  C   -1.183969
    36  C   -1.133011
    37  C   -0.356523
    38  C   -0.305349
    39  C   -0.280530
    40  C   -0.343527
    41  H    0.216398
    42  H    0.225123
    43  H    0.216776
    44  H    0.226072
    45  H    0.212830
    46  H    0.225981
    47  H    0.212116
    48  H    0.223700
    49  H    0.218968
    50  H    0.230508
    51  H    0.214284
    52  H    0.230111
    53  H    0.222632
    54  H    0.239524
    55  H    0.236677
    56  H    0.221842
    57  H    0.229402
    58  H    0.242063
    59  H    0.225067
    60  H    0.242710
    61  H    0.226330
    62  H    0.226156
    63  H    0.240159
    64  H    0.229540
    65  H    0.201658
    66  H    0.204454
    67  H    0.214271
    68  H    0.235104
    69  H    0.247110
    70  H    0.235269
    71  H    0.208485
    72  H    0.250346
    73  H    0.193619
    74  H    0.192740
    75  H    0.211648
    76  H    0.231587
    77  H    0.232266
    78  H    0.234117
    79  H    0.212073
    80  H    0.229651
    81  H    0.181314
    82  H    0.180139
    83  H    0.186977
    84  H    0.180053
    85  H    0.189664
    86  H    0.185936
    87  H    0.227690
    88  H    0.232484
    89  H    0.215856
    90  H    0.234453
    91  H    0.215228
    92  H    0.233915
    93  H    0.183439
    94  H    0.187139
    95  H    0.173789
    96  H    0.179378
 Sum of Mulliken charges =  -0.00000
 Mulliken charges with hydrogens summed into heavy atoms:
               1
     1  C   -0.938983
     2  C   -0.444193
     3  C    0.426868
     4  C    0.280933
     5  C   -0.160035
     6  C   -0.057824
     7  C    0.941868
     8  C    0.475849
     9  C   -0.146385
    10  C   -0.316074
    11  C   -0.295940
    12  C   -0.401638
    13  C    0.188837
    14  C    0.186196
    15  C    0.193602
    16  C    0.259984
    17  C   -0.050621
    18  C    0.057400
    19  C    0.026037
    20  C    0.132148
    21  C   -0.182967
    22  C   -0.155032
    23  C    0.602032
    24  C    0.614153
    25  C   -0.479838
    26  C   -0.482739
    27  C   -0.151530
    28  C   -0.180461
    29  C   -0.200101
    30  C   -0.162429
    31  C    0.384502
    32  C    0.396900
    33  C    0.623606
    34  C    0.535413
    35  C   -0.507938
    36  C   -0.449416
    37  C   -0.173084
    38  C   -0.118210
    39  C   -0.106741
    40  C   -0.164150
 Electronic spatial extent (au):  <R**2>=         107250.0966
 Charge=             -0.0000 electrons
 Dipole moment (field-independent basis, Debye):
    X=              0.0677    Y=              0.0157    Z=             -0.0199  Tot=              0.0722
 Quadrupole moment (field-independent basis, Debye-Ang):
   XX=           -216.5822   YY=           -238.4902   ZZ=           -261.3254
   XY=             -3.7326   XZ=              1.4435   YZ=              5.7910
 Traceless Quadrupole moment (field-independent basis, Debye-Ang):
   XX=             22.2171   YY=              0.3090   ZZ=            -22.5262
   XY=             -3.7326   XZ=              1.4435   YZ=              5.7910
 Octapole moment (field-independent basis, Debye-Ang**2):
  XXX=             15.4123  YYY=             -4.7691  ZZZ=              0.8252  XYY=             -5.3110
  XXY=              2.8284  XXZ=              1.3369  XZZ=             -0.3107  YZZ=              2.1552
  YYZ=             -3.5351  XYZ=             -3.7348
 Hexadecapole moment (field-independent basis, Debye-Ang**3):
 XXXX=        -138919.5680 YYYY=          -3456.6650 ZZZZ=          -1259.1027 XXXY=          -1111.6496
 XXXZ=           -270.5906 YYYX=            -41.6043 YYYZ=             16.2620 ZZZX=             12.5223
 ZZZY=             10.7955 XXYY=         -24477.2961 XXZZ=         -25264.1243 YYZZ=           -779.1179
 XXYZ=             73.7790 YYXZ=             41.0808 ZZXY=            -41.4633
 N-N= 3.630589738649D+03 E-N=-1.085985168083D+04  KE= 1.543202535819D+03
 1\1\GINC-D0035\SP\RM062X TD-FC\6-31+G(d)\C40H56\CHINTALA.V\08-Jun-2022
 \0\\# m062x/6-31+g(d) TD(Nstates=50)\\Beta-Carotene TD-DFT\\0,1\C,0,-1
 2.8901,-0.8145,-0.5076\C,0,12.8997,0.441,0.6411\C,0,-14.2559,-0.0801,-
 0.4187\C,0,13.9687,-0.5754,1.1283\C,0,-14.1325,1.4021,-0.7232\C,0,14.2
 584,-1.6458,0.0914\C,0,-11.7656,-0.011,0.1873\C,0,11.7051,-0.2704,-0.0
 369\C,0,-13.1937,2.0628,0.2749\C,0,12.9914,-2.4292,-0.2171\C,0,-11.925
 4,1.2838,0.56\C,0,11.7507,-1.5779,-0.3966\C,0,-12.5294,-1.027,-1.9959\
 C,0,-13.1074,-2.1999,0.1487\C,0,13.5556,1.4186,-0.3613\C,0,12.4673,1.2
 391,1.8955\C,0,-10.5162,-0.7258,0.3915\C,0,10.5386,0.5604,-0.2876\C,0,
 -10.9033,2.1251,1.289\C,0,10.6162,-2.364,-1.0125\C,0,-9.3101,-0.1674,0
 .2\C,0,9.2794,0.1212,-0.1333\C,0,-8.0143,-0.8203,0.3882\C,0,8.0576,0.8
 903,-0.3702\C,0,-8.0214,-2.2597,0.8498\C,0,8.2067,2.3079,-0.8682\C,0,-
 6.8238,-0.2163,0.1826\C,0,6.8152,0.3903,-0.1964\C,0,-5.4906,-0.7696,0.
 3389\C,0,5.5378,1.0456,-0.3959\C,0,-4.3789,-0.0528,0.0989\C,0,4.3476,0
 .4561,-0.1936\C,0,-2.9988,-0.5222,0.2249\C,0,3.0244,1.0661,-0.3595\C,0
 ,-2.7772,-1.9381,0.6986\C,0,2.9783,2.4996,-0.8248\C,0,-1.9244,0.254,-0
 .033\C,0,1.9379,0.305,-0.1059\C,0,-0.52,-0.0913,0.054\C,0,0.5427,0.689
 5,-0.2053\H,0,-14.9809,-0.5336,-1.1065\H,0,-14.678,-0.1942,0.5896\H,0,
 14.9007,-0.0578,1.3881\H,0,13.6261,-1.0679,2.0491\H,0,-15.118,1.8792,-
 0.6708\H,0,-13.7657,1.5561,-1.7445\H,0,15.0309,-2.3289,0.4631\H,0,14.6
 555,-1.1947,-0.8253\H,0,-12.9377,3.0589,-0.1072\H,0,-13.7245,2.2123,1.
 2241\H,0,13.1799,-3.0184,-1.1229\H,0,12.7999,-3.1441,0.5935\H,0,-13.34
 18,-1.5315,-2.5315\H,0,-11.634,-1.6498,-2.1064\H,0,-12.3301,-0.0788,-2
 .507\H,0,-12.2784,-2.8883,-0.0477\H,0,-14.0093,-2.6823,-0.2474\H,0,-13
 .2289,-2.1122,1.2346\H,0,12.8973,2.2601,-0.6035\H,0,13.8132,0.9231,-1.
 3038\H,0,14.4766,1.8465,0.0515\H,0,13.3367,1.6674,2.4081\H,0,11.9395,0
 .5977,2.611\H,0,11.8023,2.0723,1.6424\H,0,-10.594,-1.7437,0.7546\H,0,1
 0.735,1.5667,-0.6416\H,0,-11.4085,2.7969,1.9939\H,0,-10.343,2.7487,0.5
 854\H,0,-10.2131,1.5415,1.9032\H,0,10.0172,-2.8518,-0.2374\H,0,11.0083
 ,-3.1587,-1.6589\H,0,9.9808,-1.7688,-1.6729\H,0,-9.2338,0.8426,-0.1967
 \H,0,9.0889,-0.8649,0.2815\H,0,-7.0523,-2.7392,0.9778\H,0,-8.5673,-2.8
 803,0.1289\H,0,-8.5251,-2.3381,1.8208\H,0,8.7409,2.9103,-0.1238\H,0,7.
 2876,2.8471,-1.0927\H,0,8.7877,2.3189,-1.7983\H,0,-6.844,0.8237,-0.145
 8\H,0,6.7362,-0.642,0.1473\H,0,-5.3867,-1.7974,0.6561\H,0,5.5437,2.079
 2,-0.714\H,0,-4.4832,0.9825,-0.2248\H,0,4.3471,-0.5839,0.1336\H,0,-3.2
 75,-2.0922,1.6638\H,0,-3.2048,-2.644,-0.0234\H,0,-1.7457,-2.2497,0.854
 2\H,0,3.4831,3.1529,-0.1041\H,0,1.9677,2.8941,-0.9455\H,0,3.4696,2.603
 4,-1.799\H,0,-2.1061,1.2785,-0.3592\H,0,2.0859,-0.7259,0.2177\H,0,-0.2
 764,-1.104,0.3568\H,0,0.3341,1.7091,-0.5157\\Version=ES64L-G16RevB.01\
 State=1-A\HF=-1557.1582261\RMSD=6.091e-09\PG=C01 [X(C40H56)]\\@


 YOU SHOULDN'T LET PEOPLE DRIVE YOU CRAZY
 WHEN YOU KNOW IT'S WITHIN WALKING DISTANCE.
 Job cpu time:       2 days 16 hours 29 minutes 17.0 seconds.
 Elapsed time:       0 days  1 hours 21 minutes  0.0 seconds.
 File lengths (MBytes):  RWF=  15995 Int=      0 D2E=      0 Chk=   1248 Scr=      2
 Normal termination of Gaussian 16 at Wed Jun  8 11:56:10 2022.
