   This run of MOLCAS is using the pymolcas driver

                             OPE
                             OPE          NMOL  CASOP  ENMOLC A   SO
                 OPE        NMOLC        AS  OP EN  MO LC     AS  OP
                OPENM       OL CA        SO  PE NM  OL CA     SOP EN
                OP EN      MO   LC       AS  OP ENMOL  CASO   PENMOL
                OP  EN     MO   LC       AS  OP EN     MO     LC ASO
               OP   E  NMOL  C  AS       OP  EN MO     LC     AS  OP
               OP  E   NMO   LC AS        OPEN  MO     LCASOP EN   M
               O  PEN   MO  LCA  SO
            OPE   NMO   L   CAS    OP
        OPENMOL  CASOP     ENMOL   CASOPE
     OPENMOLCA   SOPENMOLCASOPEN   MOLCASOPE
    OPENMOLCAS   OP           EN   MOL    CAS
    OPENMOLCAS       OP  ENM        O     LCA
    OPENMOLCAS    OPEN  MOLCASO     P  E  NMO
    OPENMOLCAS     OP               E  N  MOL
    OPENMOLCA   SO           PENM   O  L  CAS    OPEN    MO    LCAS
    OPENMOLCA   SOP           ENM   O  L  CAS   OP  EN  MOLC  AS   O
    OPENMOLCA   SOPE           NM      O  LCA   S      OP  EN MO
    OPENMOLC                AS         O  PEN   M      OL  CA  SOPE
    OPENMO        LCASOPE  NMOL        C  ASO   P      ENMOLC     AS
    OPE     NMO      LCA  SO     P     E   NM   OL  CA SO  PE N   MO
          OPENMOLCA            SOPE   NMO        LCAS  O    P  ENMO
     OPENMOLCASOPENMOLCASOPENMOLCASOPENMOLCA
        OPENMOLCASOPENMOLCASOPENMOLCASOPE
            OPENMOLCASOPENMOLCASOPENM
               OPENMOLCASOPENMOLCA        version: 22.02
                   OPENMOLCASO
                       OPE                tag: 112-ge90b629

 OpenMolcas is free software; you can redistribute it and/or modify it
 under the terms of the GNU Lesser General Public License version 2.1.
 OpenMolcas is distributed in the hope that it will be useful, but it
 is provided "as is" and without any express or implied warranties.
 For more details see the full text of the license in the file
 LICENSE or in <http://www.gnu.org/licenses/>.

                 Copyright (C) The OpenMolcas Authors
           For the author list and the recommended citation,
                   consult the file CONTRIBUTORS.md

           *************************************************
           * pymolcas version py2.22                       *
           *   build 8f5156e7c298caa029894eefd30f00af      *
           *   (after the EMIL interpreter by V. Veryazov) *
           *************************************************

configuration info
------------------
Host name: d3071 (Linux)
C Compiler ID: Intel
C flags: -O2 -fpic -std=gnu99 -gcc-sys -qopenmp
Fortran Compiler ID: Intel
Fortran flags: -O2 -fpic  -fpp -i8 -r8 -heap-arrays -qopenmp
Definitions: _MOLCAS_;_I8_;_LINUX_;_MOLCAS_MPP_;_SCALAPACK_;_GA_
Parallel: ON (GA=ON)


   ----------------------------------------------------------------------------------------------------------------------------------------------------------------------------------------------------------------
  |
  |           Project: FMNhq_Ph-2
  |    Submitted from: /scratch/chintala.v/capstone/openmolcas/benchmark3/FMNhq_Ph-2_HF_6-31GPS_vacuum
  |      Scratch area: /scratch/chintala.v/capstone/openmolcas/tmp_dir/24583240/FMNhq_Ph-2
  |   Save outputs to: /scratch/chintala.v/capstone/openmolcas/benchmark3/FMNhq_Ph-2_HF_6-31GPS_vacuum
  |            Molcas: /shared/centos7/openmolcas/22.02-intel-cascadelake
  |
  | Scratch area is empty
  |
  |    MOLCAS_DRIVER = /shared/centos7/openmolcas/22.02-intel-cascadelake/pymolcas
  |    MOLCAS_LINALG = libmkl_core.so:libmkl_sequential.so:libmkl_intel_ilp64.so:libmkl_avx512.so:libiomp5.so:libpthread.so:libmkl_blacs_intelmpi_ilp64.so:libmkl_scalapack_ilp64.so:libmkl_blacs_intelmpi_ilp64.so
  |    MOLCAS_NPROCS = 1
  |     MOLCAS_PRINT = 2
  |    MOLCAS_SOURCE = /shared/centos7/openmolcas/22.02-intel-cascadelake
  | MOLCAS_STRUCTURE = 0
  |   MOLCAS_TIMELIM = 259140
  |
   ----------------------------------------------------------------------------------------------------------------------------------------------------------------------------------------------------------------

++ ---------   Input file   ---------

&GATEWAY
 Title  = FMNhq_Ph-2 (14,12)
 coord  = /scratch/chintala.v/capstone/openmolcas/benchmark3/input/FMNhq_Ph-2.xyz
 BasDir = /scratch/chintala.v/capstone/openmolcas/custom_basis
 Basis  = 6-31GPS
 Group  = NoSym

&SEWARD

&SCF
 Charge = -3

&GRID_IT
 All

&RASSCF
 LumOrb
 Spin = 1
 Nactel = 14
 Ras2 = 12
 Charge = -3
 CiRoot= 5 5 1
 OutOrbital
 Natural= 5

&MCPDFT
 KSDFT = T:PBE

&GRID_IT
 FILEORB = $Project.RasOrb.1
 NAME = 1
 All

&GRID_IT
 FILEORB = $Project.RasOrb.2
 NAME = 2
 All

&GRID_IT
 FILEORB = $Project.RasOrb.3
 NAME = 3
 All

&GRID_IT
 FILEORB = $Project.RasOrb.4
 NAME = 4
 All

&GRID_IT
 FILEORB = $Project.RasOrb.5
 NAME = 5
 All

&RASSI

-- ----------------------------------

--- Start Module: gateway at Sat Apr  2 16:28:39 2022 ---
 
()()()()()()()()()()()()()()()()()()()()()()()()()()()()()()()()()()()()()()()()()()()()()()()()()()

                                              &GATEWAY

                       only a single process is used, running in SERIAL mode
                      available to each process: 145 GB of memory, 56 threads
                                            pid: 146273
()()()()()()()()()()()()()()()()()()()()()()()()()()()()()()()()()()()()()()()()()()()()()()()()()()
 
 basistype.tbl is not found
 basistype.tbl is not found
 basistype.tbl is not found
 basistype.tbl is not found
 basistype.tbl is not found
 basistype.tbl is not found
 basistype.tbl is not found
 basistype.tbl is not found
 basistype.tbl is not found
 basistype.tbl is not found
 basistype.tbl is not found
 basistype.tbl is not found
 basistype.tbl is not found
 basistype.tbl is not found
 basistype.tbl is not found
 basistype.tbl is not found
 basistype.tbl is not found
 basistype.tbl is not found
 basistype.tbl is not found
 basistype.tbl is not found
 basistype.tbl is not found
 basistype.tbl is not found
 basistype.tbl is not found
 basistype.tbl is not found
 basistype.tbl is not found
 basistype.tbl is not found
 basistype.tbl is not found
 basistype.tbl is not found
 basistype.tbl is not found
 basistype.tbl is not found
 basistype.tbl is not found
 
 Title:
                                       FMNhq_Ph-2 (14,12)                               
 
 
++    Symmetry information:
      ---------------------
 
                    Character Table for C1 
 
                             E  
                    a        1  x, y, xy, Rz, z, xz, Ry, yz, Rx, I
--
 
 
++    Basis set information:
      ----------------------
 
 
      Basis set label: C.6-31GPS.........
 
      Electronic valence basis set:
      ------------------
      Associated Effective Charge   6.000000 au
      Associated Actual Charge      6.000000 au
      Nuclear Model: Point charge
 
      Shell  nPrim  nBasis  Cartesian Spherical Contaminant
         s      11       4        X                  
         p       5       3        X                  
         d       1       1                 X         
 
 
      Basis set label: H.6-31GPS.........
 
      Electronic valence basis set:
      ------------------
      Associated Effective Charge   1.000000 au
      Associated Actual Charge      1.000000 au
      Nuclear Model: Point charge
 
      Shell  nPrim  nBasis  Cartesian Spherical Contaminant
         s       4       2        X                  
 
 
      Basis set label: C.6-31GPS.........
 
      Electronic valence basis set:
      ------------------
      Associated Effective Charge   6.000000 au
      Associated Actual Charge      6.000000 au
      Nuclear Model: Point charge
 
      Shell  nPrim  nBasis  Cartesian Spherical Contaminant
         s      11       4        X                  
         p       5       3        X                  
         d       1       1                 X         
 
 
      Basis set label: H.6-31GPS.........
 
      Electronic valence basis set:
      ------------------
      Associated Effective Charge   1.000000 au
      Associated Actual Charge      1.000000 au
      Nuclear Model: Point charge
 
      Shell  nPrim  nBasis  Cartesian Spherical Contaminant
         s       4       2        X                  
 
 
      Basis set label: O.6-31GPS.........
 
      Electronic valence basis set:
      ------------------
      Associated Effective Charge   8.000000 au
      Associated Actual Charge      8.000000 au
      Nuclear Model: Point charge
 
      Shell  nPrim  nBasis  Cartesian Spherical Contaminant
         s      11       4        X                  
         p       5       3        X                  
         d       1       1                 X         
 
 
      Basis set label: N.6-31GPS.........
 
      Electronic valence basis set:
      ------------------
      Associated Effective Charge   7.000000 au
      Associated Actual Charge      7.000000 au
      Nuclear Model: Point charge
 
      Shell  nPrim  nBasis  Cartesian Spherical Contaminant
         s      11       4        X                  
         p       5       3        X                  
         d       1       1                 X         
 
 
      Basis set label: H.6-31GPS.........
 
      Electronic valence basis set:
      ------------------
      Associated Effective Charge   1.000000 au
      Associated Actual Charge      1.000000 au
      Nuclear Model: Point charge
 
      Shell  nPrim  nBasis  Cartesian Spherical Contaminant
         s       4       2        X                  
 
 
      Basis set label: N.6-31GPS.........
 
      Electronic valence basis set:
      ------------------
      Associated Effective Charge   7.000000 au
      Associated Actual Charge      7.000000 au
      Nuclear Model: Point charge
 
      Shell  nPrim  nBasis  Cartesian Spherical Contaminant
         s      11       4        X                  
         p       5       3        X                  
         d       1       1                 X         
 
 
      Basis set label: H.6-31GPS.........
 
      Electronic valence basis set:
      ------------------
      Associated Effective Charge   1.000000 au
      Associated Actual Charge      1.000000 au
      Nuclear Model: Point charge
 
      Shell  nPrim  nBasis  Cartesian Spherical Contaminant
         s       4       2        X                  
 
 
      Basis set label: C.6-31GPS.........
 
      Electronic valence basis set:
      ------------------
      Associated Effective Charge   6.000000 au
      Associated Actual Charge      6.000000 au
      Nuclear Model: Point charge
 
      Shell  nPrim  nBasis  Cartesian Spherical Contaminant
         s      11       4        X                  
         p       5       3        X                  
         d       1       1                 X         
 
 
      Basis set label: H.6-31GPS.........
 
      Electronic valence basis set:
      ------------------
      Associated Effective Charge   1.000000 au
      Associated Actual Charge      1.000000 au
      Nuclear Model: Point charge
 
      Shell  nPrim  nBasis  Cartesian Spherical Contaminant
         s       4       2        X                  
 
 
      Basis set label: C.6-31GPS.........
 
      Electronic valence basis set:
      ------------------
      Associated Effective Charge   6.000000 au
      Associated Actual Charge      6.000000 au
      Nuclear Model: Point charge
 
      Shell  nPrim  nBasis  Cartesian Spherical Contaminant
         s      11       4        X                  
         p       5       3        X                  
         d       1       1                 X         
 
 
      Basis set label: H.6-31GPS.........
 
      Electronic valence basis set:
      ------------------
      Associated Effective Charge   1.000000 au
      Associated Actual Charge      1.000000 au
      Nuclear Model: Point charge
 
      Shell  nPrim  nBasis  Cartesian Spherical Contaminant
         s       4       2        X                  
 
 
      Basis set label: C.6-31GPS.........
 
      Electronic valence basis set:
      ------------------
      Associated Effective Charge   6.000000 au
      Associated Actual Charge      6.000000 au
      Nuclear Model: Point charge
 
      Shell  nPrim  nBasis  Cartesian Spherical Contaminant
         s      11       4        X                  
         p       5       3        X                  
         d       1       1                 X         
 
 
      Basis set label: H.6-31GPS.........
 
      Electronic valence basis set:
      ------------------
      Associated Effective Charge   1.000000 au
      Associated Actual Charge      1.000000 au
      Nuclear Model: Point charge
 
      Shell  nPrim  nBasis  Cartesian Spherical Contaminant
         s       4       2        X                  
 
 
      Basis set label: C.6-31GPS.........
 
      Electronic valence basis set:
      ------------------
      Associated Effective Charge   6.000000 au
      Associated Actual Charge      6.000000 au
      Nuclear Model: Point charge
 
      Shell  nPrim  nBasis  Cartesian Spherical Contaminant
         s      11       4        X                  
         p       5       3        X                  
         d       1       1                 X         
 
 
      Basis set label: H.6-31GPS.........
 
      Electronic valence basis set:
      ------------------
      Associated Effective Charge   1.000000 au
      Associated Actual Charge      1.000000 au
      Nuclear Model: Point charge
 
      Shell  nPrim  nBasis  Cartesian Spherical Contaminant
         s       4       2        X                  
 
 
      Basis set label: C.6-31GPS.........
 
      Electronic valence basis set:
      ------------------
      Associated Effective Charge   6.000000 au
      Associated Actual Charge      6.000000 au
      Nuclear Model: Point charge
 
      Shell  nPrim  nBasis  Cartesian Spherical Contaminant
         s      11       4        X                  
         p       5       3        X                  
         d       1       1                 X         
 
 
      Basis set label: H.6-31GPS.........
 
      Electronic valence basis set:
      ------------------
      Associated Effective Charge   1.000000 au
      Associated Actual Charge      1.000000 au
      Nuclear Model: Point charge
 
      Shell  nPrim  nBasis  Cartesian Spherical Contaminant
         s       4       2        X                  
 
 
      Basis set label: O.6-31GPS.........
 
      Electronic valence basis set:
      ------------------
      Associated Effective Charge   8.000000 au
      Associated Actual Charge      8.000000 au
      Nuclear Model: Point charge
 
      Shell  nPrim  nBasis  Cartesian Spherical Contaminant
         s      11       4        X                  
         p       5       3        X                  
         d       1       1                 X         
 
 
      Basis set label: P.6-31GPS.........
 
      Electronic valence basis set:
      ------------------
      Associated Effective Charge  15.000000 au
      Associated Actual Charge     15.000000 au
      Nuclear Model: Point charge
 
      Shell  nPrim  nBasis  Cartesian Spherical Contaminant
         s      17       5        X                  
         p      11       4        X                  
         d       1       1                 X         
 
 
      Basis set label: O.6-31GPS.........
 
      Electronic valence basis set:
      ------------------
      Associated Effective Charge   8.000000 au
      Associated Actual Charge      8.000000 au
      Nuclear Model: Point charge
 
      Shell  nPrim  nBasis  Cartesian Spherical Contaminant
         s      11       4        X                  
         p       5       3        X                  
         d       1       1                 X         
 
 
      Basis set label: H.6-31GPS.........
 
      Electronic valence basis set:
      ------------------
      Associated Effective Charge   1.000000 au
      Associated Actual Charge      1.000000 au
      Nuclear Model: Point charge
 
      Shell  nPrim  nBasis  Cartesian Spherical Contaminant
         s       4       2        X                  
 
 
      Basis set label: O.6-31GPS.........
 
      Electronic valence basis set:
      ------------------
      Associated Effective Charge   8.000000 au
      Associated Actual Charge      8.000000 au
      Nuclear Model: Point charge
 
      Shell  nPrim  nBasis  Cartesian Spherical Contaminant
         s      11       4        X                  
         p       5       3        X                  
         d       1       1                 X         
 
 
      Basis set label: H.6-31GPS.........
 
      Electronic valence basis set:
      ------------------
      Associated Effective Charge   1.000000 au
      Associated Actual Charge      1.000000 au
      Nuclear Model: Point charge
 
      Shell  nPrim  nBasis  Cartesian Spherical Contaminant
         s       4       2        X                  
 
 
      Basis set label: O.6-31GPS.........
 
      Electronic valence basis set:
      ------------------
      Associated Effective Charge   8.000000 au
      Associated Actual Charge      8.000000 au
      Nuclear Model: Point charge
 
      Shell  nPrim  nBasis  Cartesian Spherical Contaminant
         s      11       4        X                  
         p       5       3        X                  
         d       1       1                 X         
 
 
      Basis set label: H.6-31GPS.........
 
      Electronic valence basis set:
      ------------------
      Associated Effective Charge   1.000000 au
      Associated Actual Charge      1.000000 au
      Nuclear Model: Point charge
 
      Shell  nPrim  nBasis  Cartesian Spherical Contaminant
         s       4       2        X                  
 
 
      Basis set label: C.6-31GPS.........
 
      Electronic valence basis set:
      ------------------
      Associated Effective Charge   6.000000 au
      Associated Actual Charge      6.000000 au
      Nuclear Model: Point charge
 
      Shell  nPrim  nBasis  Cartesian Spherical Contaminant
         s      11       4        X                  
         p       5       3        X                  
         d       1       1                 X         
 
 
      Basis set label: H.6-31GPS.........
 
      Electronic valence basis set:
      ------------------
      Associated Effective Charge   1.000000 au
      Associated Actual Charge      1.000000 au
      Nuclear Model: Point charge
 
      Shell  nPrim  nBasis  Cartesian Spherical Contaminant
         s       4       2        X                  
 
 
      Basis set label: C.6-31GPS.........
 
      Electronic valence basis set:
      ------------------
      Associated Effective Charge   6.000000 au
      Associated Actual Charge      6.000000 au
      Nuclear Model: Point charge
 
      Shell  nPrim  nBasis  Cartesian Spherical Contaminant
         s      11       4        X                  
         p       5       3        X                  
         d       1       1                 X         
 
 
      Basis set label: H.6-31GPS.........
 
      Electronic valence basis set:
      ------------------
      Associated Effective Charge   1.000000 au
      Associated Actual Charge      1.000000 au
      Nuclear Model: Point charge
 
      Shell  nPrim  nBasis  Cartesian Spherical Contaminant
         s       4       2        X                  
--
 
 
++    Molecular structure info:
      -------------------------
 
                    ************************************************ 
                    **** Cartesian Coordinates / Bohr, Angstrom **** 
                    ************************************************ 
 
     Center  Label                x              y              z                     x              y              z
        1      C1              -2.052656       6.843237       0.541082             -1.086219       3.621285       0.286328
        2      C2              -3.985487       2.911057       0.900749             -2.109029       1.540465       0.476656
        3      C3              -6.231886       3.727823      -0.145594             -3.297772       1.972679      -0.077045
        4      C4              -6.452067       6.259591      -0.948183             -3.414287       3.312433      -0.501757
        5      C5              -7.836934      -0.480266      -0.378214             -4.147127      -0.254146      -0.200142
        6      C6              -5.552112      -1.363853       0.652044             -2.938051      -0.721720       0.345047
        7      C7              -5.093553      -3.954537       0.680162             -2.695392      -2.092651       0.359926
        8      H8              -3.345463      -4.673070       1.468493             -1.770343      -2.472882       0.777093
        9      C9              -6.841644      -5.691324      -0.283895             -3.620442      -3.011719      -0.150231
       10      C10             -9.093700      -4.804736      -1.339030             -4.812179      -2.542557      -0.708584
       11      C11             -9.547340      -2.203220      -1.376168             -5.052235      -1.165894      -0.728237
       12      H12            -11.301809      -1.491340      -2.168493             -5.980660      -0.789183      -1.147517
       13      O13             -0.268844       8.337205       0.785610             -0.142266       4.411859       0.415727
       14      O14             -8.369527       7.220846      -1.906719             -4.428963       3.821107      -1.008992
       15      N15             -4.287235       7.694872      -0.543107             -2.268707       4.071951      -0.287400
       16      N16             -1.943850       4.389473       1.255137             -1.028641       2.322809       0.664190
       17      H17             -4.345743       9.529209      -1.079147             -2.299668       5.042640      -0.571060
       18      N18             -8.379601       2.112525      -0.237008             -4.434294       1.117900      -0.125419
       19      N19             -3.805324       0.404602       1.659828             -2.013691       0.214106       0.878343
       20      H20             -9.676038       2.724840      -1.507002             -5.120339       1.441923      -0.797471
       21      C21             -1.648535      -0.503361       3.096441             -0.872367      -0.266367       1.638566
       22      H22             -0.898984       1.086583       4.168169             -0.475722       0.574995       2.205700
       23      H23             -2.344050      -1.894483       4.453251             -1.240418      -1.002517       2.356559
       24      C24              0.476648      -1.814929       1.566857              0.252231      -0.960419       0.829145
       25      H25             -0.174373      -2.101092      -0.386054             -0.092274      -1.111850      -0.204291
       26      C26              2.915946      -0.237803       1.458313              1.543052      -0.125840       0.771706
       27      H27              3.565424       0.083928       3.411005              1.886741       0.044413       1.805026
       28      C28              5.036749      -1.558518       0.011287              2.665333      -0.824732       0.005973
       29      H29              4.356622      -1.998493      -1.901304              2.305425      -1.057557      -1.006127
       30      C30              7.401878       0.070269      -0.175830              3.916905       0.037185      -0.093045
       31      H31              7.893584       0.797498       1.704353              4.177105       0.422018       0.901905
       32      H32              7.081694       1.662464      -1.449898              3.747471       0.879738      -0.767253
       33      O33              9.342290      -1.524606      -1.078966              4.943727      -0.806787      -0.570964
       34      P34             12.340622      -0.352047      -1.096155              6.530376      -0.186295      -0.580060
       35      O35             12.856275       0.383176       1.652480              6.803248       0.202768       0.874455
       36      O36             13.845948      -2.618501      -2.051177              7.326960      -1.385651      -1.085436
       37      O37             12.235047       1.894299      -2.913835              6.474508       1.002420      -1.541935
       38      O38              0.883817      -4.179197       2.776907              0.467696      -2.211536       1.469476
       39      H39              2.532426      -4.805547       2.286357              1.340102      -2.542986       1.209888
       40      O40              2.517506       2.060869       0.175692              1.332207       1.090565       0.092972
       41      H41              0.980911       2.927371       0.791878              0.519076       1.549098       0.419044
       42      O42              5.680262      -3.847399       1.277461              3.005865      -2.035956       0.676003
       43      H43              7.357702      -4.273956       0.682333              3.893528      -2.261680       0.361075
       44      C44            -11.008879      -6.614620      -2.417283             -5.825648      -3.500306      -1.279171
       45      H45            -12.655742      -5.606967      -3.136520             -6.697130      -2.967079      -1.659775
       46      H46            -10.202869      -7.719102      -3.967505             -5.399126      -4.084773      -2.099513
       47      H47            -11.651324      -7.962824      -0.988438             -6.165615      -4.213745      -0.523059
       48      C48             -6.276918      -8.481966      -0.193328             -3.321602      -4.488463      -0.102305
       49      H49             -7.699534      -9.501804       0.906762             -4.074418      -5.028138       0.479838
       50      H50             -6.273724      -9.309730      -2.087469             -3.319912      -4.926497      -1.104641
       51      H51             -4.435248      -8.833689       0.661485             -2.347032      -4.674587       0.350043
 
                    ************************************************* 
                    **** InterNuclear Distances / Bohr, Angstrom **** 
                    ************************************************* 
 
     Atom centers         Bohr        Angstrom
   43 H43      42 O42     1.830282        0.968544
   39 H39      38 O38     1.830536        0.968678
   41 H41      40 O40     1.868592        0.988816
   17 H17      15 N15     1.911950        1.011760
   20 H20      18 N18     1.915350        1.013559
    8 H8        7 C7      2.047821        1.083660
   12 H12      11 C11     2.052490        1.086131
   22 H22      21 C21     2.058725        1.089430
   45 H45      44 C44     2.060297        1.090262
   51 H51      48 C48     2.060623        1.090435
   23 H23      21 C21     2.063951        1.092196
   32 H32      30 C30     2.064183        1.092319
   47 H47      44 C44     2.066878        1.093745
   46 H46      44 C44     2.067056        1.093839
   50 H50      48 C48     2.067117        1.093871
   49 H49      48 C48     2.067391        1.094016
   31 H31      30 C30     2.075024        1.098056
   29 H29      28 C28     2.077055        1.099130
   25 H25      24 C24     2.078359        1.099820
   27 H27      26 C26     2.082868        1.102206
   13 O13       1 C1      2.339599        1.238062
   14 O14       4 C4      2.349351        1.243223
   16 N16       2 C2      2.545503        1.347022
   16 N16       1 C1      2.557865        1.353564
    3 C3        2 C2      2.609262        1.380762
   11 C11       5 C5      2.624876        1.389025
   19 N19       2 C2      2.625067        1.389126
   15 N15       1 C1      2.625660        1.389439
   15 N15       4 C4      2.628805        1.391104
    7 C7        6 C6      2.631105        1.392321
   10 C10       9 C9      2.640285        1.397179
   11 C11      10 C10     2.641033        1.397574
    9 C9        7 C7      2.646064        1.400237
   18 N18       5 C5      2.652733        1.403766
    6 C6        5 C5      2.657550        1.406315
   40 O40      26 C26     2.662286        1.408821
    4 C4        3 C3      2.665048        1.410283
   33 O33      30 C30     2.669173        1.412465
   19 N19       6 C6      2.682224        1.419372
   38 O38      24 C24     2.686964        1.421880
   18 N18       3 C3      2.688908        1.422909
   42 O42      28 C28     2.693749        1.425470
   21 C21      19 N19     2.745905        1.453070
   44 C44      10 C10     2.847142        1.506643
   48 C48       9 C9      2.848649        1.507440
   30 C30      28 C28     2.877810        1.522872
   36 O36      34 P34     2.883555        1.525911
   28 C28      26 C26     2.887209        1.527845
   37 O37      34 P34     2.891570        1.530153
   35 O35      34 P34     2.891616        1.530177
   26 C26      24 C24     2.906765        1.538194
   24 C24      21 C21     2.928521        1.549707
   34 P34      33 O33     3.219501        1.703687
   41 H41      16 N16     3.302511        1.747614
   47 H47      46 H46     3.321484        1.757654
   50 H50      49 H49     3.321934        1.757892
   23 H23      22 H22     3.325092        1.759563
   51 H51      49 H49     3.340973        1.767967
   51 H51      50 H50     3.341162        1.768067
   46 H46      45 H45     3.341891        1.768452
   47 H47      45 H45     3.342630        1.768844
   32 H32      31 H31     3.369961        1.783306
   42 O42      39 H39     3.441626        1.821230
   43 H43      28 C28     3.634656        1.923377
   39 H39      24 C24     3.699689        1.957791
   41 H41      26 C26     3.769193        1.994571
   43 H43      33 O33     3.820953        2.021961
   20 H20       3 C3      3.836873        2.030386
   20 H20       5 C5      3.863829        2.044650
   17 H17       1 C1      3.885592        2.056167
   17 H17       4 C4      3.891549        2.059319
   22 H22      19 N19     3.899191        2.063363
   23 H23      19 N19     3.901836        2.064763
   33 O33      31 H31     3.903560        2.065675
   42 O42      29 H29     3.908327        2.068198
   33 O33      32 H32     3.924959        2.076999
   38 O38      25 H25     3.929709        2.079512
   40 O40      27 H27     3.933659        2.081603
   12 H12       5 C5      4.028986        2.132048
   24 C24      23 H23     4.036575        2.136063
    9 C9        8 H8      4.041161        2.138490
   28 C28      27 H27     4.052222        2.144344
   26 C26      25 H25     4.052604        2.144546
   29 H29      26 C26     4.057414        2.147091
    8 H8        6 C6      4.060394        2.148668
   30 C30      29 H29     4.065787        2.151522
   12 H12      10 C10     4.067229        2.152285
   27 H27      24 C24     4.067810        2.152592
   51 H51       9 C9      4.069268        2.153364
   45 H45      10 C10     4.069728        2.153607
   31 H31      28 C28     4.071706        2.154654
   46 H46      10 C10     4.078316        2.158152
   47 H47      10 C10     4.078954        2.158490
   50 H50       9 C9      4.082679        2.160461
   49 H49       9 C9      4.083307        2.160793
   32 H32      28 C28     4.085533        2.161971
   25 H25      21 C21     4.105322        2.172443
   24 C24      22 H22     4.132549        2.186851
   23 H23       8 H8      4.199066        2.222050
   41 H41      22 H22     4.280403        2.265091
   15 N15      13 O13     4.280835        2.265320
   38 O38      23 H23     4.295251        2.272949
   16 N16      13 O13     4.314011        2.282876
   15 N15      14 O14     4.330040        2.291358
   51 H51       8 H8      4.376031        2.315696
    2 C2        1 C1      4.396275        2.326409
   40 O40      28 C28     4.412887        2.335199
   19 N19      16 N16     4.416793        2.337266
   43 H43      30 C30     4.428396        2.343406
   16 N16      15 N15     4.432922        2.345802
   15 N15       3 C3      4.435895        2.347374
   45 H45      12 H12     4.439436        2.349248
   33 O33      28 C28     4.441563        2.350374
   38 O38       8 H8      4.454512        2.357226
   14 O14       3 C3      4.457833        2.358984
   38 O38      21 C21     4.475118        2.368131
   25 H25       8 H8      4.484443        2.373065
   19 N19       3 C3      4.493501        2.377858
    5 C5        3 C3      4.509801        2.386484
   42 O42      30 C30     4.519308        2.391515
   22 H22      16 N16     4.526210        2.395167
   11 C11       9 C9      4.547606        2.406490
   42 O42      26 C26     4.550092        2.407805
    4 C4        2 C2      4.551401        2.408498
    7 C7        5 C5      4.551578        2.408591
   11 C11       6 C6      4.558513        2.412261
   16 N16       3 C3      4.559285        2.412670
    6 C6        2 C2      4.559717        2.412899
   10 C10       7 C7      4.560828        2.413486
   20 H20      12 H12     4.566932        2.416716
   43 H43      29 H29     4.567208        2.416863
   18 N18       6 C6      4.568404        2.417495
   32 H32      29 H29     4.586108        2.426864
   40 O40      24 C24     4.595896        2.432043
   19 N19       5 C5      4.603312        2.435968
   10 C10       5 C5      4.604744        2.436726
   18 N18       2 C2      4.608729        2.438834
    9 C9        6 C6      4.611494        2.440298
   18 N18      11 C11     4.613779        2.441507
   38 O38      26 C26     4.626319        2.448142
   18 N18       4 C4      4.628101        2.449085
   50 H50      46 H46     4.637112        2.453854
   27 H27      22 H22     4.637839        2.454239
   17 H17      13 O13     4.638890        2.454795
   49 H49      47 H47     4.645093        2.458077
   19 N19       7 C7      4.649879        2.460610
   41 H41      27 H27     4.650236        2.460799
   39 H39      26 C26     4.658007        2.464911
   39 H39      25 H25     4.667185        2.469768
    4 C4        1 C1      4.681172        2.477169
   21 C21       2 C2      4.684085        2.478711
   21 C21       6 C6      4.685449        2.479433
   39 H39      28 C28     4.689433        2.481541
   20 H20      14 O14     4.699023        2.486616
   31 H31      27 H27     4.706890        2.490779
   17 H17      14 O14     4.712139        2.493557
   36 O36      33 O33     4.735476        2.505906
   48 C48       7 C7      4.760352        2.519070
   44 C44      11 C11     4.762401        2.520154
   48 C48      10 C10     4.771678        2.525063
   44 C44       9 C9      4.771757        2.525105
   24 C24       8 H8      4.773592        2.526076
   29 H29      25 H25     4.778747        2.528804
   30 C30      26 C26     4.784236        2.531709
   21 C21       8 H8      4.787093        2.533220
   20 H20       4 C4      4.816714        2.548895
   24 C24      19 N19     4.823924        2.552711
   28 C28      24 C24     4.824943        2.553250
   41 H41      24 C24     4.831592        2.556768
   37 O37      33 O33     4.839804        2.561114
   35 O35      33 O33     4.842368        2.562471
   37 O37      35 O35     4.849810        2.566409
   22 H22       2 C2      4.850901        2.566986
   26 C26      21 C21     4.856796        2.570106
   40 O40      32 H32     4.861386        2.572535
   25 H25      19 N19     4.862915        2.573344
   26 C26      22 H22     4.863230        2.573511
   37 O37      36 O36     4.868731        2.576422
   36 O36      35 O35     4.868942        2.576533
   41 H41      21 C21     4.898461        2.592154
   40 O40      29 H29     4.916775        2.601846
   51 H51       7 C7      4.923397        2.605349
   20 H20      11 C11     4.931476        2.609625
   45 H45      11 C11     4.934216        2.611074
   42 O42      33 O33     4.935439        2.611722
   42 O42      27 H27     4.947715        2.618218
   41 H41       1 C1      4.959782        2.624604
   41 H41       2 C2      4.967619        2.628751
   35 O35      31 H31     4.980227        2.635422
   40 O40      25 H25     4.988356        2.639724
   23 H23       6 C6      5.002239        2.647071
   15 N15       2 C2      5.006062        2.649094
   18 N18      12 H12     5.025712        2.659492
   42 O42      38 O38     5.036299        2.665095
   34 P34      30 C30     5.041482        2.667838
   33 O33      29 H29     5.075204        2.685682
   38 O38      27 H27     5.076153        2.686185
   48 C48       8 H8      5.085545        2.691154
   31 H31      26 C26     5.090115        2.693573
   19 N19       8 H8      5.102042        2.699884
   23 H23       7 C7      5.102920        2.700349
   43 H43      39 H39     5.112609        2.705476
   39 H39      27 H27     5.122391        2.710653
   44 C44      12 H12     5.137675        2.718740
   40 O40      16 N16     5.146970        2.723659
   42 O42      31 H31     5.162956        2.732118
    6 C6        3 C3      5.198412        2.750881
   43 H43      31 H31     5.201091        2.752299
   29 H29      24 C24     5.207306        2.755588
   11 C11       7 C7      5.208822        2.756390
   21 C21      16 N16     5.236166        2.770860
   19 N19      18 N18     5.238224        2.771949
   30 C30      27 H27     5.252042        2.779261
   28 C28      25 H25     5.254337        2.780476
   27 H27      21 C21     5.256351        2.781541
    3 C3        1 C1      5.257688        2.782249
   40 O40      30 C30     5.286127        2.797298
    5 C5        2 C2      5.288711        2.798665
   41 H41      25 H25     5.292225        2.800525
    9 C9        5 C5      5.306093        2.807863
   25 H25      23 H23     5.307454        2.808583
   10 C10       6 C6      5.324181        2.817435
   40 O40      22 H22     5.344298        2.828080
   16 N16       4 C4      5.354997        2.833742
   39 H39      29 H29     5.361320        2.837088
   37 O37      32 H32     5.362267        2.837589
   25 H25       7 C7      5.363805        2.838404
   47 H47       9 C9      5.365549        2.839326
   50 H50      10 C10     5.367252        2.840227
   18 N18      14 O14     5.374289        2.843951
   34 P34      31 H31     5.379632        2.846779
   46 H46       9 C9      5.383187        2.848660
   49 H49      10 C10     5.389780        2.852148
   32 H32      26 C26     5.424220        2.870374
   21 C21       7 C7      5.442166        2.879870
   48 C48      47 H47     5.457650        2.888064
   50 H50      44 C44     5.458396        2.888459
   41 H41      19 N19     5.479576        2.899667
   48 C48      46 H46     5.499042        2.909968
   49 H49      44 C44     5.507892        2.914651
   25 H25       6 C6      5.526414        2.924452
   48 C48      44 C44     5.551974        2.937978
   41 H41      13 O13     5.552318        2.938160
   42 O42      24 C24     5.593951        2.960191
   25 H25      22 H22     5.606004        2.966570
   38 O38      28 C28     5.635908        2.982394
   34 P34      32 H32     5.642669        2.985972
   50 H50      47 H47     5.651601        2.990699
--
 
 
            Nuclear Potential Energy           3329.48773072 au
 
The total execution time is limited to 259140 seconds.
--- Stop Module: gateway at Sat Apr  2 16:28:40 2022 /rc=_RC_ALL_IS_WELL_ ---
*** files: xmldump
    saved to directory /scratch/chintala.v/capstone/openmolcas/benchmark3/FMNhq_Ph-2_HF_6-31GPS_vacuum
--- Module gateway spent 1 second ---

--- Start Module: seward at Sat Apr  2 16:28:40 2022 ---
 
()()()()()()()()()()()()()()()()()()()()()()()()()()()()()()()()()()()()()()()()()()()()()()()()()()

                                              &SEWARD

                       only a single process is used, running in SERIAL mode
                      available to each process: 145 GB of memory, 56 threads
                                            pid: 146278
()()()()()()()()()()()()()()()()()()()()()()()()()()()()()()()()()()()()()()()()()()()()()()()()()()
 
               SEWARD will generate:
                  Multipole Moment integrals up to order  2
                  Kinetic Energy integrals
                  Nuclear Attraction integrals (point charge)
                  One-Electron Hamiltonian integrals
                  Velocity integrals
                  Orbital angular momentum around ( 0.1374  0.1112 -0.0064 )
                  Velocity quadrupole around ( 0.1374  0.1112 -0.0064 )
                  Two-Electron Repulsion integrals
 
 Title:
                                       FMNhq_Ph-2 (14,12)                               
 
 
                   Integrals are discarded if absolute value <: 0.10E-13
                   Integral cutoff threshold is set to       <: 0.10E-15
 
            Nuclear Potential Energy           3329.48773072 au
 
 
      Basis set specifications :
      Symmetry species         a  
      Basis functions          602
 
 
      Input file to MOLDEN was generated!
 
The total execution time is limited to 259140 seconds.
--- Stop Module: seward at Sat Apr  2 22:09:09 2022 /rc=_RC_ALL_IS_WELL_ ---
*** files: FMNhq_Ph-2.GssOrb FMNhq_Ph-2.guessorb.h5 FMNhq_Ph-2.guessorb.molden xmldump
    saved to directory /scratch/chintala.v/capstone/openmolcas/benchmark3/FMNhq_Ph-2_HF_6-31GPS_vacuum
--- Module seward spent 5 hours 40 minutes 29 seconds ---

*** symbolic link created: INPORB -> FMNhq_Ph-2.GssOrb
--- Start Module: scf at Sat Apr  2 22:09:10 2022 ---
 
()()()()()()()()()()()()()()()()()()()()()()()()()()()()()()()()()()()()()()()()()()()()()()()()()()

                                                &SCF

                       only a single process is used, running in SERIAL mode
                      available to each process: 145 GB of memory, 56 threads
                                            pid: 176118
()()()()()()()()()()()()()()()()()()()()()()()()()()()()()()()()()()()()()()()()()()()()()()()()()()
 
++    Input section:
      --------------
 
      Header of the integral files:
      
       Integrals generated by Gateway/Seward, Sat Apr  2 16:28:40 2022
 
 
      Cartesian coordinates in Angstrom:
      -----------------------------------------------------
      No.  Label        X            Y            Z        
      -----------------------------------------------------
       1   C1        -1.08621900   3.62128500   0.28632800
       2   C2        -2.10902900   1.54046500   0.47665600
       3   C3        -3.29777200   1.97267900  -0.07704500
       4   C4        -3.41428700   3.31243300  -0.50175700
       5   C5        -4.14712700  -0.25414600  -0.20014200
       6   C6        -2.93805100  -0.72172000   0.34504700
       7   C7        -2.69539200  -2.09265100   0.35992600
       8   H8        -1.77034300  -2.47288200   0.77709300
       9   C9        -3.62044200  -3.01171900  -0.15023100
      10   C10       -4.81217900  -2.54255700  -0.70858400
      11   C11       -5.05223500  -1.16589400  -0.72823700
      12   H12       -5.98066000  -0.78918300  -1.14751700
      13   O13       -0.14226600   4.41185900   0.41572700
      14   O14       -4.42896300   3.82110700  -1.00899200
      15   N15       -2.26870700   4.07195100  -0.28740000
      16   N16       -1.02864100   2.32280900   0.66419000
      17   H17       -2.29966800   5.04264000  -0.57106000
      18   N18       -4.43429400   1.11790000  -0.12541900
      19   N19       -2.01369100   0.21410600   0.87834300
      20   H20       -5.12033900   1.44192300  -0.79747100
      21   C21       -0.87236700  -0.26636700   1.63856600
      22   H22       -0.47572200   0.57499500   2.20570000
      23   H23       -1.24041800  -1.00251700   2.35655900
      24   C24        0.25223100  -0.96041900   0.82914500
      25   H25       -0.09227400  -1.11185000  -0.20429100
      26   C26        1.54305200  -0.12584000   0.77170600
      27   H27        1.88674100   0.04441300   1.80502600
      28   C28        2.66533300  -0.82473200   0.00597300
      29   H29        2.30542500  -1.05755700  -1.00612700
      30   C30        3.91690500   0.03718500  -0.09304500
      31   H31        4.17710500   0.42201800   0.90190500
      32   H32        3.74747100   0.87973800  -0.76725300
      33   O33        4.94372700  -0.80678700  -0.57096400
      34   P34        6.53037600  -0.18629500  -0.58006000
      35   O35        6.80324800   0.20276800   0.87445500
      36   O36        7.32696000  -1.38565100  -1.08543600
      37   O37        6.47450800   1.00242000  -1.54193500
      38   O38        0.46769600  -2.21153600   1.46947600
      39   H39        1.34010200  -2.54298600   1.20988800
      40   O40        1.33220700   1.09056500   0.09297200
      41   H41        0.51907600   1.54909800   0.41904400
      42   O42        3.00586500  -2.03595600   0.67600300
      43   H43        3.89352800  -2.26168000   0.36107500
      44   C44       -5.82564800  -3.50030600  -1.27917100
      45   H45       -6.69713000  -2.96707900  -1.65977500
      46   H46       -5.39912600  -4.08477300  -2.09951300
      47   H47       -6.16561500  -4.21374500  -0.52305900
      48   C48       -3.32160200  -4.48846300  -0.10230500
      49   H49       -4.07441800  -5.02813800   0.47983800
      50   H50       -3.31991200  -4.92649700  -1.10464100
      51   H51       -2.34703200  -4.67458700   0.35004300
      -----------------------------------------------------
      Nuclear repulsion energy = 3329.48773072
--
 
++    Orbital specifications:
      -----------------------
 
      Symmetry species               1
                                     a
      Frozen orbitals                0
      Aufbau                       120
      Start temperature = 0.500
      End temperature   = 0.010
      Temperature Factor= 0.460
      Deleted orbitals               0
      Total number of orbitals     602
      Number of basis functions    602
--
 
      Molecular charge                          -3.000
 
++    Optimization specifications:
      ----------------------------
 
      SCF Algorithm: Conventional
      Minimized density differences are used
      Number of density matrices in core                5
      Maximum number of NDDO SCF iterations           400
      Maximum number of HF SCF iterations             400
      Threshold for SCF energy change            0.10E-08
      Threshold for density matrix               0.10E-03
      Threshold for Fock matrix                  0.15E-03
      Threshold for linear dependence            0.10E-08
      Threshold at which DIIS is turned on       0.15E+00
      Threshold at which QNR/C2DIIS is turned on 0.75E-01
      Threshold for Norm(delta) (QNR/C2DIIS)     0.20E-04
      DIIS extrapolation of the SCF procedure
      All orbitals punched on: SCFORB
--
 
      Input vectors read from INPORB
      Orbital file label: *Guess orbitals
 
 
++ Convergence information
                                   SCF        iterations: Energy and convergence statistics
 
Iter     Tot. SCF        One-elec.       Two-elec.     Energy      Max Dij or  Max Fij      DNorm      TNorm      AccCon     Time
         Energy          Energy          Energy        Change      Delta Norm                                                in Sec.
 
 The total and one-electron energies are shifted by a value of      1000. a.u.
 
   1  -829.503908312 -8283.108057676  4124.116418645   0.00E+00    0.21E+00*   0.11E+01*    0.80E+04   0.12E+04   None     16486.
   2  -535.475252600 -7762.265095917  3897.302112598   0.29E+03*   0.80E-01*   0.49E+00*    0.10E+06   0.11E+04   EDIIS    12388.
   3  -873.196194790 -8184.592153089  3981.908227579  -0.34E+03*   0.26E+00*   0.48E+00*    0.37E+05   0.12E+04   EDIIS    10583.
   4  -750.394822547 -8358.768324080  4278.885770814   0.12E+03*   0.33E+00*   0.37E+00*    0.11E+05   0.12E+04   EDIIS    10777.
   5  -880.216704274 -8334.821982188  4125.117547194  -0.13E+03*   0.85E-01*   0.51E+00*    0.25E+03   0.12E+04   EDIIS    11959.
   6  -816.414180199 -8129.526006359  3983.624095441   0.64E+02*   0.25E+00*   0.26E+00*    0.59E+05   0.12E+04   EDIIS     9959.
   7  -883.738803049 -8259.177376935  4045.950843166  -0.67E+02*   0.21E+00*   0.27E+00*    0.21E+04   0.12E+04   EDIIS    11134.
   8  -887.544230192 -8295.245176872  4078.213215961  -0.38E+01*   0.69E-01*   0.11E+00*    0.14E+03   0.12E+04   EDIIS    12272.
   9  -887.650576501 -8291.031626371  4073.893319150  -0.11E+00*   0.61E-01*   0.73E-01*    0.82E+02   0.12E+04   EDIIS    10334.
  10  -887.682973571 -8292.670755496  4075.500051205  -0.32E-01*   0.25E-01*   0.37E-01*    0.26E+02   0.12E+04   EDIIS    11880.
  11  -887.696860635 -8291.757270259  4074.572678904  -0.14E-01*   0.20E-01*   0.14E-01*    0.91E+01   0.12E+04   EDIIS     9826.
  12  -887.699058547 -8292.286861390  4075.100072123  -0.22E-02*   0.67E-02*   0.10E-01*    0.45E+01   0.12E+04   EDIIS    13041.
 
       Fermi aufbau procedure completed!
      nOcc=  120
 
  13  -887.700892630 -8291.965268453  4074.776645103  -0.18E-02*   0.57E-02*   0.13E-02*    0.12E+01   0.12E+04   EDIIS    10493.
  14  -887.700959944 -8292.138501583  4074.949810920  -0.67E-04*   0.14E-02*   0.78E-03*    0.33E+00   0.12E+04   EDIIS    10316.
  15  -887.701099612 -8292.040026436  4074.851196105  -0.14E-03*   0.14E-02*   0.32E-03*    0.87E-01   0.12E+04   EDIIS    10990.
  16  -887.701104600 -8292.072890263  4074.884054943  -0.50E-05*   0.91E-03*   0.21E-03*    0.26E-01   0.12E+04   EDIIS    10890.
  17  -887.701106739 -8292.046644182  4074.857806724  -0.21E-05*   0.43E-03*   0.87E-04     0.10E-01   0.12E+04   c2DIIS   11986.
  18  -887.701109285 -8292.060156389  4074.871316385  -0.25E-05*   0.35E-03*   0.51E-04     0.30E-02   0.12E+04   QNRc2DIIS11283.
  19  -887.701109516 -8292.059657046  4074.870816811  -0.23E-06*   0.56E-03*   0.32E-04     0.42E-02   0.12E+04   QNRc2DIIS10518.
  20  -887.701109618 -8292.061929240  4074.873088903  -0.10E-06*   0.96E-04*   0.14E-04     0.28E-01   0.12E+04   QNRc2DIIS10050.
  21  -887.701109633 -8292.060945272  4074.872104920  -0.15E-07*   0.40E-04*   0.19E-05     0.97E-01   0.12E+04   QNRc2DIIS11058.
  22  -887.701109634 -8292.060972394  4074.872132041  -0.90E-09    0.36E-05    0.39E-06     0.47E+00   0.12E+04   QNRc2DIIS11308.
 
       Convergence after 22 Macro Iterations
--
 
 *****************************************************************************************************************************
 *                                                                                                                           *
 *                                             SCF/KS-DFT Program, Final results                                             *
 *                                                                                                                           *
 *                                                                                                                           *
 *                                                                                                                           *
 *                                                       Final Results                                                       *
 *                                                                                                                           *
 *****************************************************************************************************************************
 
::    Total SCF energy                              -1887.7011096339
      One-electron energy                           -9292.0609723944
      Two-electron energy                            4074.8721320410
      Nuclear repulsion energy                       3329.4877307196
      Kinetic energy (interpolated)                  1885.8183342457
      Virial theorem                                    1.0009983864
      Total spin, S(S+1)                                0.0000000000
      Total spin, S                                     0.0000000000
      Max non-diagonal density matrix element           0.0000031149
      Max non-diagonal Fock matrix element              0.0000002070
 
 
      All orbitals with orbital energies smaller than  E(LUMO)+0.5 are printed
 
++    Molecular orbitals:
      -------------------
 
      Title: SCF orbitals

      Molecular orbitals for symmetry species 1: a  
 
 
      Basis set list:
        1 C1     1s                122 C7     3d2-              243 N16    2px               364 C28    2px               485 O37    2py    
        2 C1     1s                123 C7     3d1-              244 N16    2px               365 C28    2px               486 O37    2py    
        3 C1     1s                124 C7     3d0               245 N16    2px               366 C28    2py               487 O37    2pz    
        4 C1     1s                125 C7     3d1+              246 N16    2py               367 C28    2py               488 O37    2pz    
        5 C1     2px               126 C7     3d2+              247 N16    2py               368 C28    2py               489 O37    2pz    
        6 C1     2px               127 H8     1s                248 N16    2py               369 C28    2pz               490 O37    3d2-   
        7 C1     2px               128 H8     1s                249 N16    2pz               370 C28    2pz               491 O37    3d1-   
        8 C1     2py               129 C9     1s                250 N16    2pz               371 C28    2pz               492 O37    3d0    
        9 C1     2py               130 C9     1s                251 N16    2pz               372 C28    3d2-              493 O37    3d1+   
       10 C1     2py               131 C9     1s                252 N16    3d2-              373 C28    3d1-              494 O37    3d2+   
       11 C1     2pz               132 C9     1s                253 N16    3d1-              374 C28    3d0               495 O38    1s     
       12 C1     2pz               133 C9     2px               254 N16    3d0               375 C28    3d1+              496 O38    1s     
       13 C1     2pz               134 C9     2px               255 N16    3d1+              376 C28    3d2+              497 O38    1s     
       14 C1     3d2-              135 C9     2px               256 N16    3d2+              377 H29    1s                498 O38    1s     
       15 C1     3d1-              136 C9     2py               257 H17    1s                378 H29    1s                499 O38    2px    
       16 C1     3d0               137 C9     2py               258 H17    1s                379 C30    1s                500 O38    2px    
       17 C1     3d1+              138 C9     2py               259 N18    1s                380 C30    1s                501 O38    2px    
       18 C1     3d2+              139 C9     2pz               260 N18    1s                381 C30    1s                502 O38    2py    
       19 C2     1s                140 C9     2pz               261 N18    1s                382 C30    1s                503 O38    2py    
       20 C2     1s                141 C9     2pz               262 N18    1s                383 C30    2px               504 O38    2py    
       21 C2     1s                142 C9     3d2-              263 N18    2px               384 C30    2px               505 O38    2pz    
       22 C2     1s                143 C9     3d1-              264 N18    2px               385 C30    2px               506 O38    2pz    
       23 C2     2px               144 C9     3d0               265 N18    2px               386 C30    2py               507 O38    2pz    
       24 C2     2px               145 C9     3d1+              266 N18    2py               387 C30    2py               508 O38    3d2-   
       25 C2     2px               146 C9     3d2+              267 N18    2py               388 C30    2py               509 O38    3d1-   
       26 C2     2py               147 C10    1s                268 N18    2py               389 C30    2pz               510 O38    3d0    
       27 C2     2py               148 C10    1s                269 N18    2pz               390 C30    2pz               511 O38    3d1+   
       28 C2     2py               149 C10    1s                270 N18    2pz               391 C30    2pz               512 O38    3d2+   
       29 C2     2pz               150 C10    1s                271 N18    2pz               392 C30    3d2-              513 H39    1s     
       30 C2     2pz               151 C10    2px               272 N18    3d2-              393 C30    3d1-              514 H39    1s     
       31 C2     2pz               152 C10    2px               273 N18    3d1-              394 C30    3d0               515 O40    1s     
       32 C2     3d2-              153 C10    2px               274 N18    3d0               395 C30    3d1+              516 O40    1s     
       33 C2     3d1-              154 C10    2py               275 N18    3d1+              396 C30    3d2+              517 O40    1s     
       34 C2     3d0               155 C10    2py               276 N18    3d2+              397 H31    1s                518 O40    1s     
       35 C2     3d1+              156 C10    2py               277 N19    1s                398 H31    1s                519 O40    2px    
       36 C2     3d2+              157 C10    2pz               278 N19    1s                399 H32    1s                520 O40    2px    
       37 C3     1s                158 C10    2pz               279 N19    1s                400 H32    1s                521 O40    2px    
       38 C3     1s                159 C10    2pz               280 N19    1s                401 O33    1s                522 O40    2py    
       39 C3     1s                160 C10    3d2-              281 N19    2px               402 O33    1s                523 O40    2py    
       40 C3     1s                161 C10    3d1-              282 N19    2px               403 O33    1s                524 O40    2py    
       41 C3     2px               162 C10    3d0               283 N19    2px               404 O33    1s                525 O40    2pz    
       42 C3     2px               163 C10    3d1+              284 N19    2py               405 O33    2px               526 O40    2pz    
       43 C3     2px               164 C10    3d2+              285 N19    2py               406 O33    2px               527 O40    2pz    
       44 C3     2py               165 C11    1s                286 N19    2py               407 O33    2px               528 O40    3d2-   
       45 C3     2py               166 C11    1s                287 N19    2pz               408 O33    2py               529 O40    3d1-   
       46 C3     2py               167 C11    1s                288 N19    2pz               409 O33    2py               530 O40    3d0    
       47 C3     2pz               168 C11    1s                289 N19    2pz               410 O33    2py               531 O40    3d1+   
       48 C3     2pz               169 C11    2px               290 N19    3d2-              411 O33    2pz               532 O40    3d2+   
       49 C3     2pz               170 C11    2px               291 N19    3d1-              412 O33    2pz               533 H41    1s     
       50 C3     3d2-              171 C11    2px               292 N19    3d0               413 O33    2pz               534 H41    1s     
       51 C3     3d1-              172 C11    2py               293 N19    3d1+              414 O33    3d2-              535 O42    1s     
       52 C3     3d0               173 C11    2py               294 N19    3d2+              415 O33    3d1-              536 O42    1s     
       53 C3     3d1+              174 C11    2py               295 H20    1s                416 O33    3d0               537 O42    1s     
       54 C3     3d2+              175 C11    2pz               296 H20    1s                417 O33    3d1+              538 O42    1s     
       55 C4     1s                176 C11    2pz               297 C21    1s                418 O33    3d2+              539 O42    2px    
       56 C4     1s                177 C11    2pz               298 C21    1s                419 P34    1s                540 O42    2px    
       57 C4     1s                178 C11    3d2-              299 C21    1s                420 P34    1s                541 O42    2px    
       58 C4     1s                179 C11    3d1-              300 C21    1s                421 P34    1s                542 O42    2py    
       59 C4     2px               180 C11    3d0               301 C21    2px               422 P34    1s                543 O42    2py    
       60 C4     2px               181 C11    3d1+              302 C21    2px               423 P34    1s                544 O42    2py    
       61 C4     2px               182 C11    3d2+              303 C21    2px               424 P34    2px               545 O42    2pz    
       62 C4     2py               183 H12    1s                304 C21    2py               425 P34    2px               546 O42    2pz    
       63 C4     2py               184 H12    1s                305 C21    2py               426 P34    2px               547 O42    2pz    
       64 C4     2py               185 O13    1s                306 C21    2py               427 P34    2px               548 O42    3d2-   
       65 C4     2pz               186 O13    1s                307 C21    2pz               428 P34    2py               549 O42    3d1-   
       66 C4     2pz               187 O13    1s                308 C21    2pz               429 P34    2py               550 O42    3d0    
       67 C4     2pz               188 O13    1s                309 C21    2pz               430 P34    2py               551 O42    3d1+   
       68 C4     3d2-              189 O13    2px               310 C21    3d2-              431 P34    2py               552 O42    3d2+   
       69 C4     3d1-              190 O13    2px               311 C21    3d1-              432 P34    2pz               553 H43    1s     
       70 C4     3d0               191 O13    2px               312 C21    3d0               433 P34    2pz               554 H43    1s     
       71 C4     3d1+              192 O13    2py               313 C21    3d1+              434 P34    2pz               555 C44    1s     
       72 C4     3d2+              193 O13    2py               314 C21    3d2+              435 P34    2pz               556 C44    1s     
       73 C5     1s                194 O13    2py               315 H22    1s                436 P34    3d2-              557 C44    1s     
       74 C5     1s                195 O13    2pz               316 H22    1s                437 P34    3d1-              558 C44    1s     
       75 C5     1s                196 O13    2pz               317 H23    1s                438 P34    3d0               559 C44    2px    
       76 C5     1s                197 O13    2pz               318 H23    1s                439 P34    3d1+              560 C44    2px    
       77 C5     2px               198 O13    3d2-              319 C24    1s                440 P34    3d2+              561 C44    2px    
       78 C5     2px               199 O13    3d1-              320 C24    1s                441 O35    1s                562 C44    2py    
       79 C5     2px               200 O13    3d0               321 C24    1s                442 O35    1s                563 C44    2py    
       80 C5     2py               201 O13    3d1+              322 C24    1s                443 O35    1s                564 C44    2py    
       81 C5     2py               202 O13    3d2+              323 C24    2px               444 O35    1s                565 C44    2pz    
       82 C5     2py               203 O14    1s                324 C24    2px               445 O35    2px               566 C44    2pz    
       83 C5     2pz               204 O14    1s                325 C24    2px               446 O35    2px               567 C44    2pz    
       84 C5     2pz               205 O14    1s                326 C24    2py               447 O35    2px               568 C44    3d2-   
       85 C5     2pz               206 O14    1s                327 C24    2py               448 O35    2py               569 C44    3d1-   
       86 C5     3d2-              207 O14    2px               328 C24    2py               449 O35    2py               570 C44    3d0    
       87 C5     3d1-              208 O14    2px               329 C24    2pz               450 O35    2py               571 C44    3d1+   
       88 C5     3d0               209 O14    2px               330 C24    2pz               451 O35    2pz               572 C44    3d2+   
       89 C5     3d1+              210 O14    2py               331 C24    2pz               452 O35    2pz               573 H45    1s     
       90 C5     3d2+              211 O14    2py               332 C24    3d2-              453 O35    2pz               574 H45    1s     
       91 C6     1s                212 O14    2py               333 C24    3d1-              454 O35    3d2-              575 H46    1s     
       92 C6     1s                213 O14    2pz               334 C24    3d0               455 O35    3d1-              576 H46    1s     
       93 C6     1s                214 O14    2pz               335 C24    3d1+              456 O35    3d0               577 H47    1s     
       94 C6     1s                215 O14    2pz               336 C24    3d2+              457 O35    3d1+              578 H47    1s     
       95 C6     2px               216 O14    3d2-              337 H25    1s                458 O35    3d2+              579 C48    1s     
       96 C6     2px               217 O14    3d1-              338 H25    1s                459 O36    1s                580 C48    1s     
       97 C6     2px               218 O14    3d0               339 C26    1s                460 O36    1s                581 C48    1s     
       98 C6     2py               219 O14    3d1+              340 C26    1s                461 O36    1s                582 C48    1s     
       99 C6     2py               220 O14    3d2+              341 C26    1s                462 O36    1s                583 C48    2px    
      100 C6     2py               221 N15    1s                342 C26    1s                463 O36    2px               584 C48    2px    
      101 C6     2pz               222 N15    1s                343 C26    2px               464 O36    2px               585 C48    2px    
      102 C6     2pz               223 N15    1s                344 C26    2px               465 O36    2px               586 C48    2py    
      103 C6     2pz               224 N15    1s                345 C26    2px               466 O36    2py               587 C48    2py    
      104 C6     3d2-              225 N15    2px               346 C26    2py               467 O36    2py               588 C48    2py    
      105 C6     3d1-              226 N15    2px               347 C26    2py               468 O36    2py               589 C48    2pz    
      106 C6     3d0               227 N15    2px               348 C26    2py               469 O36    2pz               590 C48    2pz    
      107 C6     3d1+              228 N15    2py               349 C26    2pz               470 O36    2pz               591 C48    2pz    
      108 C6     3d2+              229 N15    2py               350 C26    2pz               471 O36    2pz               592 C48    3d2-   
      109 C7     1s                230 N15    2py               351 C26    2pz               472 O36    3d2-              593 C48    3d1-   
      110 C7     1s                231 N15    2pz               352 C26    3d2-              473 O36    3d1-              594 C48    3d0    
      111 C7     1s                232 N15    2pz               353 C26    3d1-              474 O36    3d0               595 C48    3d1+   
      112 C7     1s                233 N15    2pz               354 C26    3d0               475 O36    3d1+              596 C48    3d2+   
      113 C7     2px               234 N15    3d2-              355 C26    3d1+              476 O36    3d2+              597 H49    1s     
      114 C7     2px               235 N15    3d1-              356 C26    3d2+              477 O37    1s                598 H49    1s     
      115 C7     2px               236 N15    3d0               357 H27    1s                478 O37    1s                599 H50    1s     
      116 C7     2py               237 N15    3d1+              358 H27    1s                479 O37    1s                600 H50    1s     
      117 C7     2py               238 N15    3d2+              359 C28    1s                480 O37    1s                601 H51    1s     
      118 C7     2py               239 N16    1s                360 C28    1s                481 O37    2px               602 H51    1s     
      119 C7     2pz               240 N16    1s                361 C28    1s                482 O37    2px    
      120 C7     2pz               241 N16    1s                362 C28    1s                483 O37    2px    
      121 C7     2pz               242 N16    1s                363 C28    2px               484 O37    2py    
 
 
  Index Energy  Occupation Coefficients ...
 
    1  -79.6231    2.0000        419 P34    1s     ( 0.997),                                                                                                                        
 
    2  -20.3078    2.0000        495 O38    1s     ( 0.996),                                                                                                                        
 
    3  -20.2856    2.0000        203 O14    1s     ( 0.996),                                                                                                                        
 
    4  -20.2793    2.0000        535 O42    1s     ( 0.996),                                                                                                                        
 
    5  -20.2636    2.0000        515 O40    1s     ( 0.996),                                                                                                                        
 
    6  -20.2574    2.0000        185 O13    1s     ( 0.996),                                                                                                                        
 
    7  -20.1841    2.0000        401 O33    1s     ( 0.996),                                                                                                                        
 
    8  -20.0679    2.0000        459 O36    1s     ( 0.996),                                                                                                                        
 
    9  -20.0672    2.0000        441 O35    1s     ( 0.996),                                                                                                                        
 
   10  -20.0646    2.0000        477 O37    1s     ( 0.996),                                                                                                                        
 
   11  -15.3707    2.0000        277 N19    1s     ( 0.996),                                                                                                                        
 
   12  -15.3605    2.0000        221 N15    1s     ( 0.996),                                                                                                                        
 
   13  -15.3559    2.0000        259 N18    1s     ( 0.996),                                                                                                                        
 
   14  -15.2925    2.0000        239 N16    1s     ( 0.996),                                                                                                                        
 
   15  -11.1226    2.0000          1 C1     1s     (-0.996),                                                                                                                        
 
   16  -11.1146    2.0000         55 C4     1s     ( 0.996),                                                                                                                        
 
   17  -11.0982    2.0000         19 C2     1s     ( 0.996),                                                                                                                        
 
   18  -11.0710    2.0000         73 C5     1s     ( 0.962),                                                                                                                        
 
   19  -11.0687    2.0000         91 C6     1s     ( 0.962),                                                                                                                        
 
   20  -11.0517    2.0000        555 C44    1s     ( 0.996),                                                                                                                        
 
   21  -11.0434    2.0000        147 C10    1s     ( 0.992),                                                                                                                        
 
   22  -11.0373    2.0000        579 C48    1s     ( 0.988),                                                                                                                        
 
   23  -11.0348    2.0000        129 C9     1s     ( 0.985),                                                                                                                        
 
   24  -11.0303    2.0000        165 C11    1s     ( 0.995),                                                                                                                        
 
   25  -11.0281    2.0000        319 C24    1s     ( 0.994),                                                                                                                        
 
   26  -11.0244    2.0000        297 C21    1s     ( 0.994),                                                                                                                        
 
   27  -11.0227    2.0000        109 C7     1s     ( 0.995),                                                                                                                        
 
   28  -11.0019    2.0000        339 C26    1s     ( 0.996),                                                                                                                        
 
   29  -11.0004    2.0000         37 C3     1s     ( 0.996),                                                                                                                        
 
   30  -10.9813    2.0000        359 C28    1s     ( 0.996),                                                                                                                        
 
   31  -10.9295    2.0000        379 C30    1s     ( 0.996),                                                                                                                        
 
   32   -7.1462    2.0000        420 P34    1s     ( 1.032),                                                                                                                        
 
   33   -5.0455    2.0000        424 P34    2px    ( 0.946),                                                                                                                        
 
   34   -5.0437    2.0000        428 P34    2py    ( 0.863),                                                                                                                        
 
   35   -5.0435    2.0000        432 P34    2pz    ( 0.903),                                                                                                                        
 
   36   -1.1465    2.0000         28 C2     2py    (-0.483),    46 C3     2py    ( 0.533),    58 C4     1s     (-0.462),    82 C5     2py    ( 0.514),                              
                                 100 C6     2py    (-0.503),   112 C7     1s     (-0.595),   168 C11    1s     ( 0.757),                                                            
 
   37   -1.1179    2.0000         94 C6     1s     (-0.569),    97 C6     2px    (-0.399),   100 C6     2py    ( 0.493),   118 C7     2py    ( 0.691),                              
                                 132 C9     1s     ( 0.411),   135 C9     2px    ( 0.530),   156 C10    2py    (-0.411),   496 O38    1s     ( 0.378),                              
                                 497 O38    1s     ( 0.447),                                                                                                                        
 
   38   -1.1147    2.0000         76 C5     1s     ( 0.313),    94 C6     1s     (-0.567),   112 C7     1s     ( 0.309),   187 O13    1s     (-0.304),                              
                                 205 O14    1s     ( 0.300),                                                                                                                        
 
   39   -1.0838    2.0000         76 C5     1s     (-1.216),                                                                                                                        
 
   40   -1.0814    2.0000         94 C6     1s     ( 0.545),   112 C7     1s     (-0.541),   132 C9     1s     ( 0.761),   150 C10    1s     (-0.507),                              
 
   41   -1.0667    2.0000         40 C3     1s     ( 0.559),   112 C7     1s     (-0.762),   132 C9     1s     ( 1.031),                                                            
 
   42   -1.0146    2.0000         22 C2     1s     ( 0.560),    40 C3     1s     (-0.302),    46 C3     2py    ( 0.293),    58 C4     1s     (-0.323),                              
                                  94 C6     1s     ( 0.463),   112 C7     1s     (-0.353),   260 N18    1s     (-0.282),   261 N18    1s     (-0.383),                              
 
   43   -0.9975    2.0000         22 C2     1s     ( 0.503),   112 C7     1s     (-0.886),                                                                                          
 
   44   -0.9895    2.0000        322 C24    1s     ( 0.296),   342 C26    1s     (-0.360),   402 O33    1s     ( 0.404),   403 O33    1s     ( 0.487),                              
                                 422 P34    1s     (-0.262),                                                                                                                        
 
   45   -0.9551    2.0000         94 C6     1s     ( 0.732),                                                                                                                        
 
   46   -0.9332    2.0000         76 C5     1s     (-0.371),   112 C7     1s     (-0.334),   132 C9     1s     ( 0.584),   150 C10    1s     (-0.469),                              
                                 241 N16    1s     ( 0.306),                                                                                                                        
 
   47   -0.8784    2.0000        362 C28    1s     ( 0.502),   382 C30    1s     (-0.411),   421 P34    1s     ( 0.304),   422 P34    1s     (-0.438),                              
                                 443 O35    1s     ( 0.274),   461 O36    1s     ( 0.284),   479 O37    1s     ( 0.267),                                                            
 
   48   -0.8472    2.0000         22 C2     1s     ( 0.422),    94 C6     1s     (-0.262),   112 C7     1s     ( 0.241),   132 C9     1s     (-0.268),                              
                                 150 C10    1s     (-0.243),                                                                                                                        
 
   49   -0.8380    2.0000        112 C7     1s     (-1.070),   132 C9     1s     ( 1.208),   138 C9     2py    ( 0.726),   150 C10    1s     (-0.895),                              
[...]
GridName=  1  166      0.4530 (0.00) s
GridName=  1  165      0.4481 (0.00) s
GridName=  1  164      0.4446 (0.00) s
GridName=  1  163      0.4416 (0.00) s
GridName=  1  162      0.4360 (0.00) s
GridName=  1  161      0.4329 (0.00) s
GridName=  1  160      0.4296 (0.00) s
GridName=  1  159      0.4276 (0.00) s
GridName=  1  158      0.4252 (0.00) s
GridName=  1  157      0.4210 (0.00) s
GridName=  1  156      0.4194 (0.00) s
GridName=  1  155      0.4143 (0.00) s
GridName=  1  154      0.4045 (0.00) s
GridName=  1  153      0.4038 (0.00) s
GridName=  1  152      0.3958 (0.00) s
GridName=  1  151      0.3938 (0.00) s
GridName=  1  150      0.3891 (0.00) s
GridName=  1  149      0.3880 (0.00) s
GridName=  1  148      0.3811 (0.00) s
GridName=  1  147      0.3774 (0.00) s
GridName=  1  146      0.3756 (0.00) s
GridName=  1  145      0.3670 (0.00) s
GridName=  1  144      0.3640 (0.00) s
GridName=  1  143      0.3587 (0.00) s
GridName=  1  142      0.3559 (0.00) s
GridName=  1  141      0.3511 (0.00) s
GridName=  1  140      0.3483 (0.00) s
GridName=  1  139      0.3438 (0.00) s
GridName=  1  138      0.3417 (0.00) s
GridName=  1  137      0.3371 (0.00) s
GridName=  1  136      0.3286 (0.00) s
GridName=  1  135      0.3275 (0.00) s
GridName=  1  134      0.3237 (0.00) s
GridName=  1  133      0.3189 (0.00) s
GridName=  1  132      0.3166 (0.00) s
GridName=  1  131      0.3135 (0.00) s
GridName=  1  130      0.3101 (0.00) s
GridName=  1  129      0.3086 (0.00) s
GridName=  1  128      0.3007 (0.00) s
GridName=  1  127      0.2823 (0.00) s
GridName=  1  126      0.2775 (0.00) s
GridName=  1  121      0.0000 (0.00) 2
GridName=  1  122      0.0000 (0.00) 2
GridName=  1  124      0.0000 (0.02) 2
GridName=  1  125      0.0000 (0.02) 2
GridName=  1  123      0.0000 (0.97) 2
GridName=  1  120      0.0000 (1.03) 2
GridName=  1  117      0.0000 (1.98) 2
GridName=  1  118      0.0000 (1.98) 2
GridName=  1  115      0.0000 (2.00) 2
GridName=  1  119      0.0000 (2.00) 2
GridName=  1  116      0.0000 (2.00) 2
GridName=  1  114      0.0000 (2.00) 2
GridName=  1  113     -0.0568 (2.00) i
GridName=  1  112     -0.0685 (2.00) i
GridName=  1  111     -0.1046 (2.00) i
GridName=  1  110     -0.1353 (2.00) i
GridName=  1  109     -0.1505 (2.00) i
GridName=  1  108     -0.1627 (2.00) i
GridName=  1  107     -0.1643 (2.00) i
GridName=  1  106     -0.1671 (2.00) i
GridName=  1  105     -0.1711 (2.00) i
GridName=  1  104     -0.1782 (2.00) i
GridName=  1  103     -0.1904 (2.00) i
GridName=  1  102     -0.1987 (2.00) i
GridName=  1  101     -0.2045 (2.00) i
GridName=  1  100     -0.2128 (2.00) i
GridName=  1   99     -0.2154 (2.00) i
GridName=  1   98     -0.2216 (2.00) i
GridName=  1   97     -0.2388 (2.00) i
GridName=  1   96     -0.2462 (2.00) i
GridName=  1   95     -0.2549 (2.00) i
GridName=  1   94     -0.2677 (2.00) i
GridName=  1   93     -0.2800 (2.00) i
GridName=  1   92     -0.2839 (2.00) i
GridName=  1   91     -0.2862 (2.00) i
GridName=  1   90     -0.2924 (2.00) i
GridName=  1   89     -0.2965 (2.00) i
GridName=  1   88     -0.2996 (2.00) i
GridName=  1   87     -0.3041 (2.00) i
GridName=  1   86     -0.3129 (2.00) i
GridName=  1   85     -0.3194 (2.00) i
GridName=  1   84     -0.3212 (2.00) i
GridName=  1   83     -0.3258 (2.00) i
GridName=  1   82     -0.3370 (2.00) i
GridName=  1   81     -0.3430 (2.00) i
GridName=  1   80     -0.3539 (2.00) i
GridName=  1   79     -0.3558 (2.00) i
GridName=  1   78     -0.3575 (2.00) i
GridName=  1   77     -0.3617 (2.00) i
GridName=  1   76     -0.3680 (2.00) i
GridName=  1   75     -0.3738 (2.00) i
GridName=  1   74     -0.3855 (2.00) i
GridName=  1   73     -0.3933 (2.00) i
GridName=  1   72     -0.4009 (2.00) i
GridName=  1   71     -0.4090 (2.00) i
GridName=  1   70     -0.4200 (2.00) i
GridName=  1   69     -0.4323 (2.00) i
GridName=  1   68     -0.4489 (2.00) i
GridName=  1   67     -0.4594 (2.00) i
GridName=  1   66     -0.4677 (2.00) i
GridName=  1   65     -0.4764 (2.00) i
GridName=  1   64     -0.4921 (2.00) i
GridName=  1   63     -0.5091 (2.00) i
GridName=  1   62     -0.5314 (2.00) i
GridName=  1   61     -0.5521 (2.00) i
GridName=  1   60     -0.5775 (2.00) i
GridName=  1   59     -0.5846 (2.00) i
GridName=  1   58     -0.6092 (2.00) i
GridName=  1   57     -0.6263 (2.00) i
GridName=  1   56     -0.6595 (2.00) i
GridName=  1   55     -0.6870 (2.00) i
GridName=  1   54     -0.7102 (2.00) i
GridName=  1   53     -0.7349 (2.00) i
GridName=  1   52     -0.7698 (2.00) i
GridName=  1   51     -0.7912 (2.00) i
GridName=  1   50     -0.8014 (2.00) i
GridName=  1   49     -0.8116 (2.00) i
GridName=  1   48     -0.9017 (2.00) i
GridName=  1   47     -0.9357 (2.00) i
GridName=  1   46     -0.9460 (2.00) i
GridName=  1   45     -0.9556 (2.00) i
GridName=  1   44     -0.9624 (2.00) i
GridName=  1   43     -0.9950 (2.00) i
GridName=  1   42     -1.0649 (2.00) i
GridName=  1   41     -1.0902 (2.00) i
GridName=  1   40     -1.0960 (2.00) i
GridName=  1   39     -1.1105 (2.00) i
GridName=  1   38     -1.1192 (2.00) i
GridName=  1   37     -1.1411 (2.00) i
GridName=  1   36     -1.1457 (2.00) i
GridName=  1   35     -5.2117 (2.00) i
GridName=  1   34     -5.2128 (2.00) i
GridName=  1   33     -5.2139 (2.00) i
GridName=  1   32     -7.3152 (2.00) i
GridName=  1   31    -10.9800 (2.00) i
GridName=  1   30    -10.9840 (2.00) i
GridName=  1   29    -10.9880 (2.00) i
GridName=  1   28    -10.9900 (2.00) i
GridName=  1   27    -10.9910 (2.00) i
GridName=  1   26    -10.9930 (2.00) i
GridName=  1   25    -10.9980 (2.00) i
GridName=  1   24    -11.0150 (2.00) i
GridName=  1   23    -11.0240 (2.00) i
GridName=  1   22    -11.0330 (2.00) i
GridName=  1   21    -11.0340 (2.00) i
GridName=  1   20    -11.0360 (2.00) i
GridName=  1   19    -11.0380 (2.00) i
GridName=  1   18    -11.0390 (2.00) i
GridName=  1   17    -11.0880 (2.00) i
GridName=  1   16    -11.1050 (2.00) i
GridName=  1   15    -11.1220 (2.00) i
GridName=  1   14    -15.2900 (2.00) i
GridName=  1   13    -15.3330 (2.00) i
GridName=  1   11    -15.3570 (2.00) i
GridName=  1   12    -15.3570 (2.00) i
GridName=  1   10    -20.2170 (2.00) i
GridName=  1    9    -20.2190 (2.00) i
GridName=  1    8    -20.2600 (2.00) i
GridName=  1    7    -20.2750 (2.00) i
GridName=  1    6    -20.2890 (2.00) i
GridName=  1    5    -20.2910 (2.00) i
GridName=  1    4    -20.3020 (2.00) i
GridName=  1    3    -20.3180 (2.00) i
GridName=  1    2    -20.3290 (2.00) i
GridName=  1    1    -79.7890 (2.00) i
 
The total execution time is limited to 259140 seconds.
--- Stop Module: grid_it at Sun Apr  3 21:10:57 2022 /rc=_RC_ALL_IS_WELL_ ---
*** files: FMNhq_Ph-2.5.lus xmldump
    saved to directory /scratch/chintala.v/capstone/openmolcas/benchmark3/FMNhq_Ph-2_HF_6-31GPS_vacuum
--- Module grid_it spent 42 seconds ---

*** symbolic link created: INPORB -> FMNhq_Ph-2.RasOrb
--- Start Module: rassi at Sun Apr  3 21:11:01 2022 ---
 
()()()()()()()()()()()()()()()()()()()()()()()()()()()()()()()()()()()()()()()()()()()()()()()()()()

                                               &RASSI

                       only a single process is used, running in SERIAL mode
                      available to each process: 145 GB of memory, 56 threads
                                             pid: 11073
()()()()()()()()()()()()()()()()()()()()()()()()()()()()()()()()()()()()()()()()()()()()()()()()()()
 
 
      ********************************************************************************
      *                                                                              *
      *                             General data section                             *
      *                                                                              *
      ********************************************************************************
 
   Specific data for JOBIPH file 
 JOBIPH                                                                         
                                                  
   -------------------------------------
 
   Header from SEWARD:
                                                                               
        Integrals generated by Gateway/Seward, Sat Apr  2 16:28:40 2022        
 
   CASSCF title (first line only):
       (No title given)                                                        
 
   STATE IRREP:                             1
   SPIN MULTIPLICITY:                       1
   ACTIVE ELECTRONS:                       14
   MAX RAS1 HOLES:                          0
   MAX RAS3 ELECTRONS:                      0
   NR OF CONFIG:                       169884
 
   The following data are common to all the states:
   ------------------------------------------------
   (note: frozen counts as inactive, deleted as secondary)
 
      Nr of irreps: 1
 
                 Total     No./Irrep 
      Irrep                  1
                             a
 
      INACTIVE     113     113
      ACTIVE        12      12
      SECONDARY    477     477
      BASIS        602     602
 
      RAS1           0       0
      RAS2          12      12
      RAS3           0       0
 
        MATRIX ELEMENTS WILL BE COMPUTED FOR THE FOLLOWING ONE-ELECTRON OPERATOR
 S, UNLESS ZERO BY SYMMETRY.
   (Herm=Hermitian, Anti=Antihermitian, Sing=Singlet operator, Trip=Triplet oper
 ator)
     MLTPL  0   1 (HERMSING)     MLTPL  1   1 (HERMSING)     MLTPL  1   2 (HERMSING)
     MLTPL  1   3 (HERMSING)     MLTPL  2   1 (HERMSING)     MLTPL  2   2 (HERMSING)
     MLTPL  2   3 (HERMSING)     MLTPL  2   4 (HERMSING)     MLTPL  2   5 (HERMSING)
     MLTPL  2   6 (HERMSING)     VELOCITY   1 (ANTISING)     VELOCITY   2 (ANTISING)
     VELOCITY   3 (ANTISING)     ANGMOM     1 (ANTISING)     ANGMOM     2 (ANTISING)
     ANGMOM     3 (ANTISING)     MLTPV  2   1 (ANTISING)     MLTPV  2   2 (ANTISING)
     MLTPV  2   3 (ANTISING)     MLTPV  2   4 (ANTISING)     MLTPV  2   5 (ANTISING)
     MLTPV  2   6 (ANTISING)
 
       EIGENSTATES OF A SPIN-FREE HAMILTONIAN WILL BE COMPUTED BASED ON:
 
  A Hamiltonian matrix computed by RASSI.
 
  Nr of states:                     5
 
   State:        1   2   3   4   5
  JobIph:        1   1   1   1   1
 Root nr:        1   2   3   4   5
 
  HAMILTONIAN MATRIX FOR THE ORIGINAL STATES:
 
  Diagonal, with energies
  -1887.68737557  -1887.67342467  -1887.67192705  -1887.65980644  -1887.65602762
 
      OVERLAP MATRIX FOR THE ORIGINAL STATES:
 
  Diagonal, with elements
      1.00000000      1.00000000      1.00000000      1.00000000      1.00000000
 
::    RASSI State    1     Total energy:   -1887.68737557121676
::    RASSI State    2     Total energy:   -1887.67342466620471
::    RASSI State    3     Total energy:   -1887.67192705201433
::    RASSI State    4     Total energy:   -1887.65980643964508
::    RASSI State    5     Total energy:   -1887.65602761574200
 
 
 
      ****************************************************************************************************
      *                                                                                                  *
      *                                         Spin-free section                                        *
      *                                                                                                  *
      *                 Note: index according to input order, order according to energy.                 *
      *                                                                                                  *
      ****************************************************************************************************
 
 
 
  SPIN-FREE ENERGIES:
  (Shifted by EMIN (a.u.) =      -1887.6873755712)
 
 SF State       Relative EMIN(au)   Rel lowest level(eV)    D:o, cm**(-1)
 
     1             0.0000000000        0.0000000000              0.0000
     2             0.0139509050        0.3796234648           3061.8697
     3             0.0154485192        0.4203756229           3390.5581
     4             0.0275691316        0.7501942877           6050.7250
     5             0.0313479555        0.8530213244           6880.0810
 
   Spin-free eigenstates in basis of input states:
   -----------------------------------------------
 
     Eigenstate No.    1 energy=  -1887.6873755712
 1 1.000000                                                                     
                      
 
     Eigenstate No.    2 energy=  -1887.6734246662
 2 1.000000                                                                     
                      
 
     Eigenstate No.    3 energy=  -1887.6719270520
 3 1.000000                                                                     
                      
 
     Eigenstate No.    4 energy=  -1887.6598064396
 4 1.000000                                                                     
                      
 
     Eigenstate No.    5 energy=  -1887.6560276157
 5 1.000000                                                                     
                      
 
 
++ Dipole transition strengths (spin-free states):
   -----------------------------------------------
     for osc. strength at least  1.00000000E-05
 
      From   To        Osc. strength     Einstein coefficients Ax, Ay, Az (sec-1)    Total A (sec-1)
     -----------------------------------------------------------------------------------------------
         1    2       1.24775080E-04  1.14828180E+02  6.45412591E+02  2.00267051E+01  7.80267476E+02
         1    3       7.56284921E-05  7.00199230E+01  2.78949292E+02  2.30953393E+02  5.79922608E+02
         1    4       2.10663040E-01  2.38933164E+06  2.22347702E+06  5.31717785E+05  5.14452644E+06
         1    5       1.04484224E-01  2.30011368E+05  2.97787223E+06  9.10991740E+04  3.29898278E+06
         2    3       4.28278011E-03  1.23008310E+02  1.51060661E+02  3.45599026E+01  3.08628874E+02
         2    4       5.33856960E-04  1.10358923E+03  2.04709122E+03  3.04164831E+01  3.18109693E+03
         2    5       3.96262476E-03  3.60906929E+04  1.79571922E+03  6.47675340E+02  3.85340875E+04
         3    5       2.70601859E-04  9.79439377E+02  9.80642745E+02  2.37803625E+02  2.19788575E+03
         4    5       5.11550312E-02  8.74497076E+03  1.31018433E+04  1.62315647E+03  2.34699706E+04
     -----------------------------------------------------------------------------------------------
--
 
++ Velocity transition strengths (spin-free states):
   -------------------------------------------------
     for osc. strength at least  1.00000000E-05
 
      From   To        Osc. strength     Einstein coefficients Ax, Ay, Az (sec-1)    Total A (sec-1)
     -----------------------------------------------------------------------------------------------
         1    2       6.75647966E-04  7.69079707E+02  2.99232321E+03  4.63688604E+02  4.22509153E+03
         1    3       3.67401398E-05  9.81426631E+01  1.65067392E+02  1.85149548E+01  2.81725010E+02
         1    4       1.81955787E-01  2.52517682E+06  1.45674397E+06  4.61556130E+05  4.44347692E+06
         1    5       1.35356632E-01  8.24516722E+05  3.02584230E+06  4.23388528E+05  4.27374755E+06
         2    3       1.40667064E+00  6.03103243E+04  2.96996917E+04  1.13585257E+04  1.01368542E+05
         2    4       1.26788866E-03  2.45112506E+03  5.06453308E+03  3.93182412E+01  7.55497639E+03
         3    5       7.52068899E-04  3.57270467E+03  1.84728707E+03  6.88471511E+02  6.10846325E+03
         4    5       8.35457967E-01  1.15535982E+05  2.52603805E+05  1.51690184E+04  3.83308806E+05
     -----------------------------------------------------------------------------------------------
--
 
++ Length and velocity gauge comparison (spin-free states):
   --------------------------------------------------------
 
 --------------------------------------------------
 A comparison between the dipole oscillator strengths in 
 length and velocity gauge will be performed
 
     All dipole oscillator differences above the tolerance of   1.00000000E-01  will be printed 
 
 Due to basis set deficiency these oscillator may be problematic 
 
 The tolerance is defined as ABS(1-O_l/O_v) 
 O_l : dipole oscillator strength in length gauge
 O_p : dipole oscillator strength in velocity gauge
 --------------------------------------------------
 
  Problematic transitions have been found
 
      From   To       Difference (%) Osc. st. (len.) Osc. st. (vel.)
     ---------------------------------------------------------------
         1    2            81.532531  1.24775080E-04  6.75647966E-04
         1    3           105.847045  7.56284921E-05  3.67401398E-05
         1    4            15.777049  2.10663040E-01  1.81955787E-01
         1    5            22.808197  1.04484224E-01  1.35356632E-01
         2    3            99.695538  4.28278011E-03  1.40667064E+00
         2    4            57.894019  5.33856960E-04  1.26788866E-03
         2    5      ---------------  3.96262476E-03 below threshold
         3    5            64.019007  2.70601859E-04  7.52068899E-04
         4    5            93.877007  5.11550312E-02  8.35457967E-01
     ---------------------------------------------------------------
 
 Number of problematic transitions =                      9
 
--
 
 Electric-dipole - electric-octupole not included
 Electric-dipole - magnetic-quadrupole not included
 
 
      ****************************************************************************************************
      *                                                                                                  *
      *                                    Special properties section                                    *
      *                                                                                                  *
      ****************************************************************************************************
 
 
++ I/O STATISTICS
 
  I. General I/O information
  - - - - - - - - - - - - - - - - - - - - - - - - - - - - - - - - - - - - - - - - - - -
  Unit  Name          Flsize      Write/Read            MBytes           Write/Read
                      (MBytes)       Calls              In/Out           Time, sec.
  - - - - - - - - - - - - - - - - - - - - - - - - - - - - - - - - - - - - - - - - - - -
   1  SCRATCH          23.93 .       5/      15 .     23.9/     71.8 .       0/       0
   2  ANNI              0.00 .       0/       0 .      0.0/      0.0 .       0/       0
   3  RUNFILE          19.83 .     266/    1740 .      1.9/     12.7 .       0/       0
   4  ONEINT           42.91 .       0/   61401 .      0.0/   1422.4 .       0/       2
   5  JOBIPH           43.94 .       0/      75 .      0.0/     18.8 .       0/       0
   6  ORDINT       143707.78 .       1/ 1149663 .      0.0/ 287415.5 .       0/     537
  - - - - - - - - - - - - - - - - - - - - - - - - - - - - - - - - - - - - - - - - - - -
   *  TOTAL        143838.39 .     272/ 1212894 .     25.8/ 288941.2 .       0/     539
  - - - - - - - - - - - - - - - - - - - - - - - - - - - - - - - - - - - - - - - - - - -
 
  II. I/O Access Patterns
  - - - - - - - - - - - - - - - - - - - -
  Unit  Name               % of random
                         Write/Read calls
  - - - - - - - - - - - - - - - - - - - -
   1  SCRATCH              0.0/  33.3
   2  ANNI                 0.0/   0.0
   3  RUNFILE             28.6/  10.2
   4  ONEINT               0.0/   1.7
   5  JOBIPH               0.0/  81.3
   6  ORDINT             100.0/   0.0
  - - - - - - - - - - - - - - - - - - - -
--
The total execution time is limited to 259140 seconds.
--- Stop Module: rassi at Sun Apr  3 21:50:15 2022 /rc=_RC_ALL_IS_WELL_ ---
*** files: FMNhq_Ph-2.rassi.h5 xmldump
    saved to directory /scratch/chintala.v/capstone/openmolcas/benchmark3/FMNhq_Ph-2_HF_6-31GPS_vacuum
--- Module rassi spent 39 minutes 14 seconds ---

.##################.
.# Happy landing! #.
.##################.

    Timing: Wall=105670.73 User=3058290.52 System=188935.72
