   This run of MOLCAS is using the pymolcas driver

                             OPE
                             OPE          NMOL  CASOP  ENMOLC A   SO
                 OPE        NMOLC        AS  OP EN  MO LC     AS  OP
                OPENM       OL CA        SO  PE NM  OL CA     SOP EN
                OP EN      MO   LC       AS  OP ENMOL  CASO   PENMOL
                OP  EN     MO   LC       AS  OP EN     MO     LC ASO
               OP   E  NMOL  C  AS       OP  EN MO     LC     AS  OP
               OP  E   NMO   LC AS        OPEN  MO     LCASOP EN   M
               O  PEN   MO  LCA  SO
            OPE   NMO   L   CAS    OP
        OPENMOL  CASOP     ENMOL   CASOPE
     OPENMOLCA   SOPENMOLCASOPEN   MOLCASOPE
    OPENMOLCAS   OP           EN   MOL    CAS
    OPENMOLCAS       OP  ENM        O     LCA
    OPENMOLCAS    OPEN  MOLCASO     P  E  NMO
    OPENMOLCAS     OP               E  N  MOL
    OPENMOLCA   SO           PENM   O  L  CAS    OPEN    MO    LCAS
    OPENMOLCA   SOP           ENM   O  L  CAS   OP  EN  MOLC  AS   O
    OPENMOLCA   SOPE           NM      O  LCA   S      OP  EN MO
    OPENMOLC                AS         O  PEN   M      OL  CA  SOPE
    OPENMO        LCASOPE  NMOL        C  ASO   P      ENMOLC     AS
    OPE     NMO      LCA  SO     P     E   NM   OL  CA SO  PE N   MO
          OPENMOLCA            SOPE   NMO        LCAS  O    P  ENMO
     OPENMOLCASOPENMOLCASOPENMOLCASOPENMOLCA
        OPENMOLCASOPENMOLCASOPENMOLCASOPE
            OPENMOLCASOPENMOLCASOPENM
               OPENMOLCASOPENMOLCA        version: v20.10 ?
                   OPENMOLCASO
                       OPE                tag:

 OpenMolcas is free software; you can redistribute it and/or modify it
 under the terms of the GNU Lesser General Public License version 2.1.
 OpenMolcas is distributed in the hope that it will be useful, but it
 is provided "as is" and without any express or implied warranties.
 For more details see the full text of the license in the file
 LICENSE or in <http://www.gnu.org/licenses/>.

                 Copyright (C) The OpenMolcas Authors
           For the author list and the recommended citation,
                   consult the file CONTRIBUTORS.md

           *************************************************
           * pymolcas version py2.13                       *
           *   build 9705e121f1d63e8ae39979112cb237c8      *
           *   (after the EMIL interpreter by V. Veryazov) *
           *************************************************

configuration info
------------------
Host name: d0006 (Linux)
C Compiler ID: Intel
C flags: -O2 -fpic -std=gnu99 -qopenmp
Fortran Compiler ID: Intel
Fortran flags: -O2 -fpic  -fpp -i8 -r8 -heap-arrays -qopenmp
Definitions: _MOLCAS_;_I8_;_LINUX_;_GA_;_MOLCAS_MPP_;SCALAPACK;_MKL_
Parallel: ON (GA=ON)


   --------------------------------------------------------------------------------------
  |
  |              Project: styrene
  |       Submitted from: /scratch/chintala.v/photo_enzyme/styrene_8_8
  |         Scratch area: /scratch/chintala.v/photo_enzyme/styrene_8_8/tmp
  |      Save outputs to: /scratch/chintala.v/photo_enzyme/styrene_8_8
  |               Molcas: /work/donglab/software/openmolcas/20.10-intel2021
  |
  | Scratch area is empty
  |
  |       MOLCAS_DRIVER = /work/donglab/software/openmolcas/20.10-intel2021/sbin/pymolcas
  | MOLCAS_KEEP_WORKDIR = NO
  |       MOLCAS_NNODES = 1
  |     MOLCAS_NODELIST = d0009
  |       MOLCAS_NPROCS = 1
  |        MOLCAS_PRINT = 2
  |       MOLCAS_SOURCE = /work/donglab/software/openmolcas/20.10-intel2021
  |    MOLCAS_STRUCTURE = 0
  |
   --------------------------------------------------------------------------------------

++ ---------   Input file   ---------

&GATEWAY
  Title= Styrene CAS(10,10)
  coord = styrene.xyz
 basis = 6-31G**
 group = c1

&SEWARD

&SCF

&RASSCF
  LumOrb
  Spin = 1
 Nactel = 10 0 0
 Inactive = 27
 Ras2 = 10
  CiRoot= 5 5 1
  OutOrbital
  Natural= 5

&GRID_IT
 FILEORB = $Project.RasOrb.1
 NAME = 1
 All

&GRID_IT
 FILEORB = $Project.RasOrb.2
 NAME = 2
 All

&GRID_IT
 FILEORB = $Project.RasOrb.3
 NAME = 3
 All

&GRID_IT
 FILEORB = $Project.RasOrb.4
 NAME = 4
 All

&GRID_IT
 FILEORB = $Project.RasOrb.5
 NAME = 5
 All

&MCPDFT
 KSDFT=TPBE

&RASSI
 Nr of JobIph
 1 5
 1 2 3 4 5

-- ----------------------------------

--- Start Module: gateway at Mon Dec 13 11:18:59 2021 ---
 
()()()()()()()()()()()()()()()()()()()()()()()()()()()()()()()()()()()()()()()()()()()()()()()()()()

                                              &GATEWAY

                       only a single process is used, running in SERIAL mode
                        available to each process: 30 GB of memory, 1 thread
                                            pid: 179243
()()()()()()()()()()()()()()()()()()()()()()()()()()()()()()()()()()()()()()()()()()()()()()()()()()
 
 
 Title:
                                       Styrene CAS(10,10)                               
 
 
++    Symmetry information:
      ---------------------
 
                    Character Table for C1 
 
                             E  
                    a        1  x, y, xy, Rz, z, xz, Ry, yz, Rx, I
--
 
 
++    Basis set information:
      ----------------------
 
 
      Basis set label: C.6-31G**.........
 
      Electronic valence basis set:
      ------------------
      Associated Effective Charge   6.000000 au
      Associated Actual Charge      6.000000 au
      Nuclear Model: Point charge
 
      Shell  nPrim  nBasis  Cartesian Spherical Contaminant
         s      10       3        X                  
         p       4       2        X                  
         d       1       1        X                  
 
 
      Basis set label: H.6-31G**.........
 
      Electronic valence basis set:
      ------------------
      Associated Effective Charge   1.000000 au
      Associated Actual Charge      1.000000 au
      Nuclear Model: Point charge
 
      Shell  nPrim  nBasis  Cartesian Spherical Contaminant
         s       4       2        X                  
         p       1       1        X                  
 
 
      Basis set label: C.6-31G**.........
 
      Electronic valence basis set:
      ------------------
      Associated Effective Charge   6.000000 au
      Associated Actual Charge      6.000000 au
      Nuclear Model: Point charge
 
      Shell  nPrim  nBasis  Cartesian Spherical Contaminant
         s      10       3        X                  
         p       4       2        X                  
         d       1       1        X                  
 
 
      Basis set label: H.6-31G**.........
 
      Electronic valence basis set:
      ------------------
      Associated Effective Charge   1.000000 au
      Associated Actual Charge      1.000000 au
      Nuclear Model: Point charge
 
      Shell  nPrim  nBasis  Cartesian Spherical Contaminant
         s       4       2        X                  
         p       1       1        X                  
 
 
      Basis set label: C.6-31G**.........
 
      Electronic valence basis set:
      ------------------
      Associated Effective Charge   6.000000 au
      Associated Actual Charge      6.000000 au
      Nuclear Model: Point charge
 
      Shell  nPrim  nBasis  Cartesian Spherical Contaminant
         s      10       3        X                  
         p       4       2        X                  
         d       1       1        X                  
 
 
      Basis set label: H.6-31G**.........
 
      Electronic valence basis set:
      ------------------
      Associated Effective Charge   1.000000 au
      Associated Actual Charge      1.000000 au
      Nuclear Model: Point charge
 
      Shell  nPrim  nBasis  Cartesian Spherical Contaminant
         s       4       2        X                  
         p       1       1        X                  
--
 
 
++    Molecular structure info:
      -------------------------
 
                    ************************************************ 
                    **** Cartesian Coordinates / Bohr, Angstrom **** 
                    ************************************************ 
 
     Center  Label                x              y              z                     x              y              z
        1      C1              -3.699213       2.152672      -0.462123             -1.957539       1.139145      -0.244545
        2      C2              -1.072478       2.259340      -0.457505             -0.567531       1.195591      -0.242101
        3      C3               0.389779       0.096943       0.024289              0.206262       0.051300       0.012853
        4      C4              -0.888058      -2.187966       0.450445             -0.469940      -1.157822       0.238365
        5      C5              -3.518611      -2.296652       0.452775             -1.861969      -1.215336       0.239598
        6      C6              -4.938385      -0.126891       0.000497             -2.613281      -0.067148       0.000263
        7      H7              -4.781882       3.848673      -0.851460             -2.530463       2.036630      -0.450573
        8      H8              -0.134600       4.031022      -0.875523             -0.071227       2.133125      -0.463307
        9      H9               0.174648      -3.899102       0.815615              0.092420      -2.063316       0.431605
       10      H10             -4.457938      -4.083056       0.808162             -2.359039      -2.160660       0.427661
       11      H11             -6.985227      -0.212749      -0.009800             -3.696423      -0.112582      -0.005186
       12      C12              3.199989       0.224944       0.066915              1.693361       0.119035       0.035410
       13      C13              4.420360       2.291397       0.872133              2.339154       1.212555       0.461513
       14      H14              6.467074       2.384139       0.862715              3.422228       1.261632       0.456529
       15      H15              3.428128       3.930046       1.594891              1.814087       2.079691       0.843980
       16      C16              4.645557      -2.073903      -0.816575              2.458323      -1.097462      -0.432113
       17      H17              4.026942      -2.668397      -2.698342              2.130966      -1.412055      -1.427901
       18      H18              6.669486      -1.685568      -0.881775              3.529340      -0.891964      -0.466615
       19      H19              4.359732      -3.684339       0.450412              2.307071      -1.949668       0.238348
 
                    ************************************************* 
                    **** InterNuclear Distances / Bohr, Angstrom **** 
                    ************************************************* 
 
     Atom centers         Bohr        Angstrom
    9 H9        4 C4      2.047115        1.083287
   15 H15      13 C13     2.047456        1.083467
    8 H8        2 C2      2.047734        1.083614
   11 H11       6 C6      2.048668        1.084108
   14 H14      13 C13     2.048835        1.084197
   10 H10       5 C5      2.049359        1.084474
    7 H7        1 C1      2.049433        1.084513
   18 H18      16 C16     2.061878        1.091099
   17 H17      16 C16     2.068128        1.094406
   19 H19      16 C16     2.068927        1.094829
   13 C13      12 C12     2.531386        1.339552
    2 C2        1 C1      2.628903        1.391156
    6 C6        5 C5      2.632143        1.392870
    5 C5        4 C4      2.632799        1.393217
    6 C6        1 C1      2.635522        1.394658
    4 C4        3 C3      2.652411        1.403596
    3 C3        2 C2      2.654483        1.404692
   12 C12       3 C3      2.813446        1.488812
   16 C16      12 C12     2.855682        1.511162
   19 H19      17 H17     3.325288        1.759667
   19 H19      18 H18     3.332382        1.763421
   18 H18      17 H17     3.353939        1.774828
   15 H15      14 H14     3.487278        1.845388
   14 H14      12 C12     3.996157        2.114675
   15 H15      12 C12     4.014293        2.124272
    9 H9        5 C5      4.042236        2.139059
    8 H8        1 C1      4.050378        2.143368
    7 H7        2 C2      4.054733        2.145672
   10 H10       4 C4      4.057507        2.147140
   10 H10       6 C6      4.066250        2.151767
    7 H7        6 C6      4.068837        2.153136
    8 H8        3 C3      4.069596        2.153538
   11 H11       5 C5      4.071124        2.154346
   18 H18      12 C12     4.072773        2.155219
   11 H11       1 C1      4.074028        2.155883
    9 H9        3 C3      4.079320        2.158683
   17 H17      12 C12     4.086798        2.162640
   19 H19      12 C12     4.095676        2.167338
   19 H19       9 H9      4.206474        2.225970
   15 H15       8 H8      4.336608        2.294834
   18 H18      14 H14     4.432463        2.345558
    4 C4        2 C2      4.542787        2.403939
    5 C5        1 C1      4.546003        2.405641
    6 C6        2 C2      4.566082        2.416266
    6 C6        4 C4      4.566797        2.416645
    3 C3        1 C1      4.602442        2.435507
    5 C5        3 C3      4.603087        2.435849
   10 H10       9 H9      4.636243        2.453394
    8 H8        7 H7      4.650921        2.461161
   13 C13       3 C3      4.666911        2.469623
   16 C16      13 C13     4.685967        2.479707
   11 H11      10 H10     4.694201        2.484064
   11 H11       7 H7      4.696623        2.485346
   12 C12       2 C2      4.761067        2.519448
   12 C12       4 C4      4.762494        2.520204
   16 C16       3 C3      4.850904        2.566988
   18 H18      13 C13     4.893976        2.589781
   16 C16       9 H9      5.097492        2.697477
   16 C16      14 H14     5.100203        2.698911
   15 H15       3 C3      5.137221        2.718500
   12 C12       8 H8      5.147223        2.723793
   12 C12       9 H9      5.169235        2.735441
   13 C13       8 H8      5.179600        2.740926
   15 H15       2 C2      5.221019        2.762844
    5 C5        2 C2      5.250642        2.778520
    4 C4        1 C1      5.251334        2.778887
   17 H17       3 C3      5.318720        2.814545
    6 C6        3 C3      5.332917        2.822058
   17 H17       9 H9      5.357490        2.835061
   19 H19       4 C4      5.456962        2.887700
   19 H19       3 C3      5.499109        2.910003
   13 C13       2 C2      5.651570        2.990682
--
 
 
            Nuclear Potential Energy            399.59906781 au
 
--- Stop Module: gateway at Mon Dec 13 11:19:00 2021 /rc=_RC_ALL_IS_WELL_ ---
*** files: xmldump
    saved to directory /scratch/chintala.v/photo_enzyme/styrene_8_8

--- Start Module: seward at Mon Dec 13 11:19:00 2021 ---
 
()()()()()()()()()()()()()()()()()()()()()()()()()()()()()()()()()()()()()()()()()()()()()()()()()()

                                              &SEWARD

                       only a single process is used, running in SERIAL mode
                        available to each process: 30 GB of memory, 1 thread
                                            pid: 179249
()()()()()()()()()()()()()()()()()()()()()()()()()()()()()()()()()()()()()()()()()()()()()()()()()()
 
               SEWARD will generate:
                  Multipole Moment integrals up to order  2
                  Kinetic Energy integrals
                  Nuclear Attraction integrals (point charge)
                  One-Electron Hamiltonian integrals
                  Velocity integrals
                  Orbital angular momentum around (-0.0737  0.0171  0.0066 )
                  Velocity quadrupole around (-0.0737  0.0171  0.0066 )
                  Two-Electron Repulsion integrals
 
 Title:
                                       Styrene CAS(10,10)                               
 
 
                   Integrals are discarded if absolute value <: 0.10E-13
                   Integral cutoff threshold is set to       <: 0.10E-15
 
            Nuclear Potential Energy            399.59906781 au
 
 
      Basis set specifications :
      Symmetry species         a  
      Basis functions          185
 
 
  Input file to MOLDEN was generated!
 
--- Stop Module: seward at Mon Dec 13 11:19:52 2021 /rc=_RC_ALL_IS_WELL_ ---
*** files: styrene.GssOrb styrene.guessorb.h5 styrene.guessorb.molden xmldump
    saved to directory /scratch/chintala.v/photo_enzyme/styrene_8_8
--- Module seward spent 52 seconds ---

*** symbolic link created: INPORB -> styrene.GssOrb
--- Start Module: scf at Mon Dec 13 11:19:52 2021 ---
 
()()()()()()()()()()()()()()()()()()()()()()()()()()()()()()()()()()()()()()()()()()()()()()()()()()

                                                &SCF

                       only a single process is used, running in SERIAL mode
                        available to each process: 30 GB of memory, 1 thread
                                            pid: 179342
()()()()()()()()()()()()()()()()()()()()()()()()()()()()()()()()()()()()()()()()()()()()()()()()()()
 
++    Input section:
      --------------
 
      Header of the integral files:
      
       Integrals generated by Gateway/Seward, Mon Dec 13 11:19:00 2021
 
 
      Cartesian coordinates in Angstrom:
      -----------------------------------------------------
      No.  Label        X            Y            Z        
      -----------------------------------------------------
       1   C1        -1.95753900   1.13914500  -0.24454500
       2   C2        -0.56753100   1.19559100  -0.24210100
       3   C3         0.20626200   0.05130000   0.01285300
       4   C4        -0.46994000  -1.15782200   0.23836500
       5   C5        -1.86196900  -1.21533600   0.23959800
       6   C6        -2.61328100  -0.06714800   0.00026300
       7   H7        -2.53046300   2.03663000  -0.45057300
       8   H8        -0.07122700   2.13312500  -0.46330700
       9   H9         0.09242000  -2.06331600   0.43160500
      10   H10       -2.35903900  -2.16066000   0.42766100
      11   H11       -3.69642300  -0.11258200  -0.00518600
      12   C12        1.69336100   0.11903500   0.03541000
      13   C13        2.33915400   1.21255500   0.46151300
      14   H14        3.42222800   1.26163200   0.45652900
      15   H15        1.81408700   2.07969100   0.84398000
      16   C16        2.45832300  -1.09746200  -0.43211300
      17   H17        2.13096600  -1.41205500  -1.42790100
      18   H18        3.52934000  -0.89196400  -0.46661500
      19   H19        2.30707100  -1.94966800   0.23834800
      -----------------------------------------------------
      Nuclear repulsion energy =  399.59906781
--
 
++    Orbital specifications:
      -----------------------
 
      Symmetry species               1
                                     a
      Frozen orbitals                0
      Occupied orbitals             32
      Secondary orbitals           153
      Deleted orbitals               0
      Total number of orbitals     185
      Number of basis functions    185
--
 
      Molecular charge                           0.000
 
++    Optimization specifications:
      ----------------------------
 
      SCF Algorithm: Conventional
      Minimized density differences are used
      Number of density matrices in core                5
      Maximum number of NDDO SCF iterations           400
      Maximum number of HF SCF iterations             400
      Threshold for SCF energy change            0.10E-08
      Threshold for density matrix               0.10E-03
      Threshold for Fock matrix                  0.15E-03
      Threshold for linear dependence            0.10E-08
      Threshold at which DIIS is turned on       0.15E+00
      Threshold at which QNR/C2DIIS is turned on 0.75E-01
      Threshold for Norm(delta) (QNR/C2DIIS)     0.20E-04
      DIIS extrapolation of the SCF procedure
      All orbitals punched on: SCFORB
--
 
      Input vectors read from INPORB
      Orbital file label: *Guess orbitals
 
 
++ Convergence information
                                   SCF        iterations: Energy and convergence statistics
 
Iter     Tot. SCF        One-elec.       Two-elec.     Energy      Max Dij or  Max Fij      DNorm      TNorm      AccCon     Time
         Energy          Energy          Energy        Change      Delta Norm                                                in Sec.
   1  -345.999236552 -1249.661313385   504.063009019   0.00E+00    0.17E+00*   0.12E+00*    0.84E+01   0.41E+03   None         3.
   2  -346.577615295 -1262.866354336   516.689671227  -0.58E+00*   0.83E-01*   0.37E-01*    0.18E+01   0.41E+03   EDIIS        3.
   3  -346.625480972 -1258.004970455   511.780421669  -0.48E-01*   0.72E-01*   0.18E-01*    0.83E+00   0.41E+03   EDIIS        3.
   4  -346.633188745 -1260.362391603   514.130135043  -0.77E-02*   0.88E-02*   0.78E-02*    0.31E+00   0.41E+03   c2DIIS       3.
   5  -346.637065666 -1259.569564873   513.333431392  -0.39E-02*   0.11E-01*   0.24E-02*    0.72E-01   0.41E+03   QNRc2DIIS    3.
   6  -346.637172214 -1259.620875165   513.384635136  -0.11E-03*   0.43E-02*   0.15E-02*    0.17E-01   0.41E+03   QNRc2DIIS    3.
   7  -346.637235076 -1259.589023691   513.352720801  -0.63E-04*   0.13E-02*   0.17E-03*    0.48E-02   0.41E+03   QNRc2DIIS    3.
   8  -346.637237368 -1259.598074871   513.361769689  -0.23E-05*   0.43E-03*   0.70E-04     0.22E-02   0.41E+03   QNRc2DIIS    3.
   9  -346.637237591 -1259.594173002   513.357867597  -0.22E-06*   0.22E-03*   0.31E-04     0.67E-03   0.41E+03   QNRc2DIIS    3.
  10  -346.637237642 -1259.594432454   513.358126998  -0.51E-07*   0.48E-04*   0.88E-05     0.28E-03   0.41E+03   QNRc2DIIS    3.
  11  -346.637237645 -1259.595241523   513.358936064  -0.28E-08*   0.14E-04    0.34E-05     0.10E-03   0.41E+03   QNRc2DIIS    3.
  12  -346.637237646 -1259.595027211   513.358721751  -0.60E-09    0.14E-04    0.13E-05     0.27E-04   0.41E+03   QNRc2DIIS    3.
 
       Convergence after 12 Macro Iterations
--
 
 *****************************************************************************************************************************
 *                                                                                                                           *
 *                                             SCF/KS-DFT Program, Final results                                             *
 *                                                                                                                           *
 *                                                                                                                           *
 *                                                                                                                           *
 *                                                       Final Results                                                       *
 *                                                                                                                           *
 *****************************************************************************************************************************
 
::    Total SCF energy                               -346.6372376456
      One-electron energy                           -1259.5950272111
      Two-electron energy                             513.3587217514
      Nuclear repulsion energy                        399.5990678141
      Kinetic energy (interpolated)                   346.0426130039
      Virial theorem                                    1.0017183567
      Total spin, S(S+1)                                0.0000000000
      Total spin, S                                     0.0000000000
      Max non-diagonal density matrix element           0.0000133817
      Max non-diagonal Fock matrix element              0.0000016236
 
 
      All orbitals with orbital energies smaller than  E(LUMO)+0.5 are printed
 
++    Molecular orbitals:
      -------------------
 
      Title: SCF orbitals

      Molecular orbitals for symmetry species 1: a  
 
          Orbital            1         2         3         4         5         6         7         8         9        10    
          Energy          -11.2438  -11.2414  -11.2335  -11.2329  -11.2320  -11.2315  -11.2307  -11.2237  -11.2179   -1.1525
          Occ. No.          2.0000    2.0000    2.0000    2.0000    2.0000    2.0000    2.0000    2.0000    2.0000    2.0000
 
        1 C1     1s         0.0003    0.0031   -0.2887    0.7952   -0.3084   -0.2395    0.3511    0.0000    0.0000   -0.0798
        2 C1     2s        -0.0001    0.0001   -0.0079    0.0220   -0.0085   -0.0068    0.0100   -0.0000    0.0001    0.1518
        3 C1     *s         0.0023   -0.0019    0.0024   -0.0084    0.0042    0.0089   -0.0131    0.0003   -0.0008    0.0912
        4 C1     2px        0.0000   -0.0000   -0.0000    0.0000    0.0000    0.0001    0.0002   -0.0000   -0.0000    0.0321
        5 C1     *px        0.0010   -0.0006    0.0005   -0.0006   -0.0004    0.0008   -0.0030   -0.0001   -0.0007    0.0033
        6 C1     2py       -0.0000    0.0000   -0.0001   -0.0001    0.0001    0.0001   -0.0001    0.0000    0.0000   -0.0426
        7 C1     *py       -0.0005    0.0008    0.0001    0.0009   -0.0007   -0.0033    0.0034   -0.0003   -0.0003   -0.0043
        8 C1     2pz       -0.0000   -0.0000    0.0000    0.0000   -0.0000   -0.0000    0.0000    0.0000   -0.0000    0.0091
        9 C1     *pz        0.0002   -0.0002   -0.0000   -0.0002    0.0001    0.0007   -0.0008    0.0000    0.0000    0.0006
       10 C1     *200       0.0000    0.0001    0.0004   -0.0008    0.0002    0.0001    0.0000   -0.0000   -0.0000    0.0036
       11 C1     *110      -0.0000   -0.0000    0.0000   -0.0000   -0.0001   -0.0001    0.0001    0.0000   -0.0000    0.0023
       12 C1     *101       0.0000    0.0000   -0.0000    0.0000    0.0000    0.0000   -0.0000   -0.0000   -0.0000   -0.0003
       13 C1     *020       0.0000    0.0000    0.0003   -0.0009    0.0002    0.0000   -0.0001    0.0000    0.0000    0.0017
       14 C1     *011      -0.0000   -0.0000    0.0000   -0.0001    0.0001    0.0001   -0.0001   -0.0000    0.0000   -0.0024
       15 C1     *002      -0.0000    0.0000    0.0004   -0.0011    0.0004    0.0003   -0.0004   -0.0000    0.0000   -0.0039
       16 C2     1s         0.0059    0.0530   -0.0572    0.2419   -0.1507   -0.2681   -0.9123   -0.0002   -0.0003   -0.0895
       17 C2     2s         0.0001    0.0013   -0.0014    0.0066   -0.0041   -0.0073   -0.0255   -0.0001   -0.0000    0.1697
       18 C2     *s        -0.0013    0.0047   -0.0002    0.0010    0.0017   -0.0016    0.0178    0.0001    0.0003    0.1076
       19 C2     2px       -0.0001   -0.0001   -0.0001    0.0001   -0.0000   -0.0000    0.0001    0.0000    0.0001   -0.0147
       20 C2     *px        0.0016    0.0001    0.0006   -0.0011    0.0001    0.0014   -0.0023   -0.0002   -0.0009   -0.0029
       21 C2     2py        0.0000    0.0001   -0.0000   -0.0000    0.0000    0.0000    0.0001   -0.0000   -0.0000   -0.0530
       22 C2     *py        0.0005   -0.0019    0.0000   -0.0005   -0.0007    0.0016   -0.0041   -0.0002    0.0006   -0.0087
       23 C2     2pz        0.0001   -0.0000    0.0000    0.0000   -0.0000   -0.0000   -0.0000   -0.0000   -0.0000    0.0111
       24 C2     *pz       -0.0002    0.0003    0.0000    0.0001    0.0002   -0.0003    0.0009    0.0001   -0.0001    0.0024
       25 C2     *200      -0.0000   -0.0003    0.0001   -0.0004    0.0002    0.0004    0.0006   -0.0000    0.0000    0.0040
       26 C2     *110      -0.0000    0.0001   -0.0000    0.0000    0.0000    0.0000    0.0000   -0.0000    0.0000   -0.0034
       27 C2     *101       0.0000   -0.0000    0.0000   -0.0000   -0.0000   -0.0000   -0.0000    0.0000   -0.0000    0.0010
       28 C2     *020      -0.0000   -0.0003    0.0001   -0.0004    0.0001    0.0004    0.0007    0.0000   -0.0000    0.0021
       29 C2     *011      -0.0000    0.0001    0.0000    0.0000    0.0000    0.0000    0.0002   -0.0000   -0.0000   -0.0030
       30 C2     *002      -0.0000   -0.0001    0.0001   -0.0004    0.0002    0.0004    0.0012   -0.0000    0.0000   -0.0043
       31 C3     1s         0.1456    0.9816    0.0267    0.0037    0.0578   -0.0076    0.0505    0.0007   -0.0007   -0.1067
       32 C3     2s         0.0042    0.0272    0.0009    0.0001    0.0017   -0.0003    0.0016   -0.0002    0.0001    0.2050
       33 C3     *s         0.0014   -0.0144   -0.0007   -0.0009   -0.0057    0.0044   -0.0085    0.0003    0.0004    0.1153
       34 C3     2px       -0.0000    0.0001   -0.0001    0.0000   -0.0001    0.0000   -0.0002   -0.0001    0.0000   -0.0325
       35 C3     *px       -0.0007    0.0010    0.0009    0.0001    0.0021   -0.0027    0.0043    0.0008   -0.0004   -0.0036
       36 C3     2py        0.0000   -0.0000   -0.0000   -0.0000   -0.0001    0.0001    0.0001    0.0000    0.0000   -0.0019
       37 C3     *py       -0.0005    0.0002    0.0001   -0.0000    0.0013   -0.0012   -0.0012    0.0005    0.0005    0.0024
       38 C3     2pz        0.0000   -0.0000    0.0000    0.0000    0.0000   -0.0000   -0.0000    0.0000    0.0000   -0.0006
       39 C3     *pz        0.0000    0.0001   -0.0000   -0.0000   -0.0002    0.0002    0.0003    0.0000   -0.0002   -0.0003
       40 C3     *200      -0.0005   -0.0008    0.0000    0.0000    0.0001   -0.0001    0.0002    0.0000   -0.0001    0.0044
       41 C3     *110       0.0000   -0.0000    0.0000    0.0000    0.0001   -0.0001   -0.0001    0.0000   -0.0001    0.0001
       42 C3     *101      -0.0000    0.0000    0.0000   -0.0000   -0.0000    0.0000    0.0000   -0.0000   -0.0000    0.0005
       43 C3     *020      -0.0002   -0.0008    0.0000    0.0000    0.0002   -0.0001    0.0002   -0.0000   -0.0000    0.0042
       44 C3     *011      -0.0000   -0.0002   -0.0000   -0.0000   -0.0001    0.0000   -0.0001    0.0000   -0.0000   -0.0037
       45 C3     *002      -0.0002   -0.0012   -0.0000   -0.0000   -0.0000   -0.0000    0.0000   -0.0000    0.0000   -0.0050
       46 C4     1s         0.0066    0.0605   -0.3258   -0.2872   -0.7955    0.4057   -0.0400    0.0004    0.0000   -0.0900
       47 C4     2s         0.0002    0.0015   -0.0088   -0.0080   -0.0222    0.0114   -0.0012    0.0000    0.0000    0.1706
       48 C4     *s        -0.0019    0.0047    0.0007    0.0019    0.0128   -0.0114    0.0050   -0.0004   -0.0000    0.1120
       49 C4     2px       -0.0001   -0.0000   -0.0001   -0.0000    0.0001   -0.0001    0.0000   -0.0001   -0.0000   -0.0186
       50 C4     *px        0.0017   -0.0001    0.0011    0.0002   -0.0012    0.0024   -0.0014    0.0014    0.0003   -0.0035
       51 C4     2py       -0.0000   -0.0001   -0.0000   -0.0001   -0.0001    0.0000   -0.0000    0.0000   -0.0000    0.0518
       52 C4     *py       -0.0009    0.0020   -0.0000    0.0002    0.0021   -0.0028    0.0021    0.0000    0.0000    0.0107
       53 C4     2pz       -0.0001    0.0000    0.0000    0.0000    0.0000   -0.0000   -0.0000    0.0000   -0.0000   -0.0101
       54 C4     *pz        0.0004   -0.0004    0.0000   -0.0000   -0.0004    0.0006   -0.0004   -0.0002    0.0001   -0.0027
       55 C4     *200      -0.0000   -0.0003    0.0005    0.0004    0.0006   -0.0001   -0.0000   -0.0001   -0.0000    0.0038
       56 C4     *110      -0.0000   -0.0001    0.0000   -0.0000   -0.0001   -0.0000   -0.0000   -0.0000   -0.0000    0.0038
       57 C4     *101       0.0000    0.0000   -0.0000    0.0000    0.0000    0.0000   -0.0000   -0.0000    0.0000   -0.0006
       58 C4     *020      -0.0000   -0.0004    0.0004    0.0003    0.0007   -0.0003   -0.0001    0.0000    0.0000    0.0025
       59 C4     *011      -0.0000    0.0001    0.0000    0.0000    0.0002   -0.0001    0.0000   -0.0000   -0.0000   -0.0028
       60 C4     *002      -0.0000   -0.0002    0.0005    0.0004    0.0010   -0.0005    0.0000   -0.0000    0.0000   -0.0044
       61 C5     1s         0.0003    0.0037   -0.7779   -0.3599    0.2142   -0.4563    0.0523   -0.0000   -0.0000   -0.0801
       62 C5     2s        -0.0002    0.0001   -0.0214   -0.0101    0.0061   -0.0129    0.0016   -0.0001    0.0000    0.1524
       63 C5     *s         0.0025   -0.0019    0.0075    0.0042   -0.0052    0.0146   -0.0055    0.0014   -0.0001    0.0904
       64 C5     2px        0.0000   -0.0000   -0.0000    0.0000    0.0002   -0.0000    0.0000    0.0000    0.0000    0.0284
       65 C5     *px        0.0010   -0.0005    0.0005   -0.0003   -0.0019    0.0018   -0.0011    0.0010    0.0002    0.0026
       66 C5     2py        0.0000   -0.0000   -0.0000   -0.0001   -0.0000   -0.0001    0.0001   -0.0000    0.0000    0.0452
       67 C5     *py        0.0008   -0.0009    0.0006    0.0008   -0.0008    0.0042   -0.0024    0.0003   -0.0002    0.0034
       68 C5     2pz        0.0000    0.0000   -0.0000    0.0000    0.0000    0.0000   -0.0000   -0.0000    0.0000   -0.0090
       69 C5     *pz       -0.0003    0.0002   -0.0001   -0.0002    0.0001   -0.0009    0.0005    0.0000   -0.0000   -0.0005
       70 C5     *200       0.0000    0.0000    0.0009    0.0003   -0.0000    0.0001    0.0000    0.0000    0.0000    0.0038
       71 C5     *110       0.0000    0.0000   -0.0000    0.0000    0.0000    0.0001   -0.0000    0.0000    0.0000   -0.0020
       72 C5     *101      -0.0000   -0.0000   -0.0000   -0.0000   -0.0000   -0.0000    0.0000    0.0000   -0.0000    0.0006
       73 C5     *020       0.0000    0.0000    0.0009    0.0004   -0.0002    0.0001    0.0000   -0.0000   -0.0000    0.0016
       74 C5     *011      -0.0000   -0.0000    0.0001    0.0000   -0.0000    0.0002   -0.0000   -0.0000    0.0000   -0.0023
       75 C5     *002      -0.0000    0.0000    0.0011    0.0005   -0.0003    0.0005   -0.0000   -0.0000    0.0000   -0.0039
       76 C6     1s        -0.0000   -0.0007   -0.4382    0.2968    0.4378    0.7000   -0.1720    0.0000    0.0000   -0.0773
       77 C6     2s         0.0001   -0.0001   -0.0119    0.0082    0.0122    0.0196   -0.0049    0.0000   -0.0000    0.1467
       78 C6     *s        -0.0011    0.0017    0.0009   -0.0016   -0.0046   -0.0159    0.0082   -0.0004    0.0000    0.0931
       79 C6     2px        0.0000   -0.0000    0.0001    0.0000    0.0001    0.0002   -0.0000   -0.0000   -0.0000    0.0532
       80 C6     *px       -0.0010    0.0011   -0.0009    0.0002   -0.0003   -0.0046    0.0032   -0.0004    0.0002    0.0081
       81 C6     2py        0.0000   -0.0000   -0.0001   -0.0001    0.0001   -0.0000   -0.0000    0.0000    0.0000    0.0019
       82 C6     *py        0.0000    0.0000    0.0005    0.0013   -0.0007    0.0001    0.0006   -0.0003   -0.0003    0.0001
       83 C6     2pz       -0.0000   -0.0000    0.0000    0.0000   -0.0000   -0.0000    0.0000   -0.0000   -0.0000   -0.0002
       84 C6     *pz       -0.0000   -0.0000   -0.0001   -0.0003    0.0002   -0.0001   -0.0001    0.0000    0.0001   -0.0000
       85 C6     *200      -0.0000   -0.0000    0.0006   -0.0004   -0.0004   -0.0004    0.0000   -0.0000    0.0000    0.0015
       86 C6     *110       0.0000   -0.0000   -0.0000   -0.0001    0.0001   -0.0001   -0.0001    0.0000   -0.0000   -0.0002
       87 C6     *101       0.0000    0.0000    0.0000    0.0000   -0.0000    0.0000    0.0000   -0.0000    0.0000    0.0001
       88 C6     *020      -0.0000   -0.0000    0.0007   -0.0004   -0.0004   -0.0004   -0.0000    0.0000   -0.0000    0.0037
       89 C6     *011      -0.0000   -0.0000    0.0000   -0.0000   -0.0001   -0.0002    0.0001    0.0000   -0.0000   -0.0032
       90 C6     *002       0.0000   -0.0000    0.0007   -0.0004   -0.0006   -0.0009    0.0002   -0.0000   -0.0000   -0.0037
       91 H7     1s        -0.0000   -0.0000    0.0001   -0.0003    0.0001    0.0001   -0.0002    0.0000    0.0000    0.0307
       92 H7     *s         0.0002   -0.0002   -0.0005    0.0011   -0.0005    0.0002   -0.0002    0.0001   -0.0000    0.0047
       93 H7     *px       -0.0000    0.0000    0.0000   -0.0001    0.0001    0.0001   -0.0001    0.0000    0.0000    0.0018
       94 H7     *py       -0.0000    0.0000   -0.0000    0.0001   -0.0001   -0.0001    0.0002    0.0000    0.0000   -0.0029
       95 H7     *pz       -0.0000   -0.0000    0.0000   -0.0000    0.0000    0.0000   -0.0000    0.0000   -0.0000    0.0007
       96 H8     1s        -0.0001    0.0000    0.0000   -0.0001    0.0001    0.0000    0.0003    0.0000    0.0000    0.0366
       97 H8     *s        -0.0003    0.0002   -0.0002    0.0005   -0.0001   -0.0008   -0.0006    0.0001   -0.0003    0.0072
       98 H8     *px       -0.0000   -0.0000    0.0000   -0.0000   -0.0000   -0.0000   -0.0001    0.0000    0.0000   -0.0018
       99 H8     *py        0.0000   -0.0001    0.0000   -0.0000   -0.0000   -0.0000   -0.0002   -0.0000    0.0000   -0.0035
      100 H8     *pz        0.0000    0.0000   -0.0000   -0.0000    0.0000    0.0000    0.0001   -0.0000   -0.0000    0.0009
      101 H9     1s        -0.0001    0.0000    0.0001    0.0001    0.0003   -0.0002    0.0001   -0.0001   -0.0000    0.0372
      102 H9     *s        -0.0006    0.0003   -0.0007   -0.0004   -0.0010    0.0001    0.0004   -0.0003   -0.0001    0.0084
      103 H9     *px       -0.0000   -0.0000    0.0000   -0.0000   -0.0002    0.0001   -0.0000   -0.0000   -0.0000   -0.0020
      104 H9     *py       -0.0000    0.0001    0.0000    0.0000    0.0002   -0.0001    0.0000   -0.0000   -0.0000    0.0035
      105 H9     *pz       -0.0000   -0.0000   -0.0000   -0.0000   -0.0000    0.0000   -0.0000    0.0000   -0.0000   -0.0007
      106 H10    1s         0.0000   -0.0000    0.0003    0.0001   -0.0001    0.0002   -0.0001    0.0000    0.0000    0.0308
      107 H10    *s         0.0003   -0.0002   -0.0012   -0.0004    0.0000    0.0000   -0.0005    0.0002   -0.0000    0.0043
      108 H10    *px       -0.0000    0.0000    0.0001    0.0000   -0.0001    0.0001   -0.0000   -0.0000   -0.0000    0.0016
      109 H10    *py        0.0000   -0.0000    0.0001    0.0001   -0.0001    0.0002   -0.0000    0.0000    0.0000    0.0030
      110 H10    *pz        0.0000    0.0000   -0.0000   -0.0000    0.0000   -0.0000    0.0000   -0.0000    0.0000   -0.0006
      111 H11    1s        -0.0000    0.0000    0.0001   -0.0001   -0.0001   -0.0003    0.0001   -0.0000    0.0000    0.0295
      112 H11    *s        -0.0002    0.0003   -0.0009    0.0005    0.0006    0.0003    0.0003   -0.0001    0.0001    0.0051
      113 H11    *px        0.0000    0.0000    0.0000   -0.0000   -0.0001   -0.0003    0.0001    0.0000   -0.0000    0.0033
      114 H11    *py       -0.0000    0.0000    0.0000    0.0000    0.0000   -0.0000   -0.0000    0.0000    0.0000    0.0001
      115 H11    *pz       -0.0000    0.0000   -0.0000   -0.0000   -0.0000   -0.0000    0.0000    0.0000   -0.0000    0.0000
      116 C12    1s         0.9843   -0.1461   -0.0010   -0.0002   -0.0022    0.0003   -0.0018   -0.0159    0.0315   -0.0610
      117 C12    2s         0.0270   -0.0038    0.0001   -0.0000    0.0001   -0.0000    0.0001   -0.0002    0.0011    0.1163
      118 C12    *s        -0.0116    0.0036   -0.0004    0.0002   -0.0001    0.0008   -0.0006    0.0029   -0.0043    0.0717
      119 C12    2px       -0.0002    0.0001   -0.0000   -0.0000   -0.0000   -0.0000    0.0000   -0.0001    0.0001   -0.0268
      120 C12    *px       -0.0007   -0.0011    0.0006   -0.0002    0.0003   -0.0003    0.0006    0.0018   -0.0012   -0.0118
      121 C12    2py       -0.0002    0.0000   -0.0000   -0.0000   -0.0000    0.0000    0.0000   -0.0000    0.0002    0.0046
      122 C12    *py        0.0002   -0.0003    0.0001    0.0002   -0.0004    0.0003    0.0003   -0.0021   -0.0017   -0.0050
      123 C12    2pz       -0.0000    0.0000    0.0000    0.0000    0.0000   -0.0000   -0.0000    0.0000    0.0001    0.0019
      124 C12    *pz        0.0000   -0.0002   -0.0000   -0.0000   -0.0001    0.0001    0.0001   -0.0009   -0.0006   -0.0014
      125 C12    *200      -0.0009   -0.0002   -0.0000   -0.0000   -0.0001    0.0000   -0.0001   -0.0001    0.0002    0.0044
      126 C12    *110       0.0002   -0.0001   -0.0000   -0.0000   -0.0000    0.0000    0.0000    0.0002    0.0000    0.0010
      127 C12    *101       0.0001   -0.0000    0.0000    0.0000   -0.0000    0.0000   -0.0000    0.0001   -0.0000    0.0003
      128 C12    *020      -0.0009   -0.0000    0.0000   -0.0000   -0.0000    0.0000   -0.0000   -0.0002    0.0001    0.0007
      129 C12    *011       0.0003   -0.0001    0.0000    0.0000    0.0000    0.0000    0.0000   -0.0001    0.0001    0.0029
      130 C12    *002      -0.0012    0.0001    0.0000   -0.0000    0.0000    0.0000    0.0000   -0.0001    0.0000   -0.0027
      131 C13    1s         0.0304   -0.0052   -0.0000   -0.0001   -0.0001    0.0001    0.0001   -0.0036   -0.9952   -0.0309
      132 C13    2s         0.0006   -0.0003    0.0000   -0.0000   -0.0000    0.0000    0.0000   -0.0003   -0.0273    0.0581
      133 C13    *s         0.0035   -0.0001   -0.0002   -0.0001    0.0001   -0.0002   -0.0002    0.0006    0.0118    0.0430
      134 C13    2px        0.0001    0.0001   -0.0000    0.0000   -0.0000   -0.0000   -0.0000   -0.0000   -0.0000   -0.0188
      135 C13    *px       -0.0006   -0.0005   -0.0001   -0.0001   -0.0001    0.0002    0.0001   -0.0003   -0.0006    0.0000
      136 C13    2py        0.0001   -0.0000   -0.0000    0.0000   -0.0000    0.0000   -0.0000    0.0001   -0.0000   -0.0236
      137 C13    *py       -0.0013   -0.0001    0.0001   -0.0000   -0.0000    0.0001    0.0003   -0.0003   -0.0010   -0.0047
      138 C13    2pz        0.0000   -0.0001   -0.0000   -0.0000   -0.0000    0.0000    0.0000    0.0000    0.0000   -0.0094
      139 C13    *pz       -0.0004    0.0001    0.0001    0.0000    0.0000    0.0000    0.0001   -0.0001   -0.0004   -0.0026
      140 C13    *200      -0.0002    0.0001    0.0000   -0.0000    0.0000    0.0000    0.0000    0.0001    0.0009   -0.0001
      141 C13    *110       0.0000    0.0000    0.0000   -0.0000    0.0000   -0.0000   -0.0000    0.0000   -0.0001    0.0025
      142 C13    *101       0.0000    0.0000   -0.0000    0.0000   -0.0000   -0.0000   -0.0000    0.0000   -0.0000    0.0010
      143 C13    *020      -0.0002    0.0001    0.0000    0.0000    0.0000   -0.0000    0.0000    0.0000    0.0009    0.0009
      144 C13    *011      -0.0001    0.0001   -0.0000    0.0000    0.0000   -0.0000    0.0000    0.0000   -0.0004    0.0018
      145 C13    *002      -0.0001   -0.0000    0.0000   -0.0000    0.0000    0.0000    0.0000   -0.0001    0.0013   -0.0010
      146 H14    1s        -0.0000    0.0000    0.0000    0.0000    0.0000   -0.0000   -0.0000   -0.0001    0.0003    0.0118
      147 H14    *s        -0.0000    0.0003    0.0000    0.0001    0.0000   -0.0001   -0.0001   -0.0001   -0.0019    0.0002
      148 H14    *px       -0.0001    0.0000    0.0000   -0.0000   -0.0000    0.0000    0.0000    0.0000   -0.0003   -0.0014
      149 H14    *py       -0.0000    0.0000    0.0000    0.0000    0.0000   -0.0000   -0.0000    0.0000    0.0001   -0.0002
      150 H14    *pz       -0.0000   -0.0000   -0.0000   -0.0000   -0.0000   -0.0000   -0.0000    0.0000    0.0000   -0.0000
      151 H15    1s        -0.0000   -0.0001   -0.0000   -0.0000   -0.0000    0.0000    0.0000   -0.0000    0.0002    0.0152
      152 H15    *s        -0.0000    0.0000   -0.0001    0.0000   -0.0001   -0.0000   -0.0002    0.0001   -0.0018    0.0038
      153 H15    *px        0.0000    0.0000    0.0000   -0.0000    0.0000   -0.0000   -0.0000    0.0000    0.0002    0.0006
      154 H15    *py       -0.0001    0.0000    0.0000    0.0000    0.0000    0.0000    0.0000   -0.0000   -0.0002   -0.0015
      155 H15    *pz       -0.0000    0.0000   -0.0000   -0.0000    0.0000    0.0000    0.0000   -0.0000   -0.0001   -0.0007
      156 C16    1s         0.0155   -0.0030    0.0001    0.0001    0.0002   -0.0002   -0.0002    0.9957   -0.0030   -0.0264
      157 C16    2s         0.0007   -0.0003    0.0001    0.0000    0.0001   -0.0000   -0.0000    0.0283    0.0001    0.0492
      158 C16    *s         0.0023   -0.0003   -0.0003    0.0000   -0.0005    0.0002   -0.0000   -0.0157   -0.0000    0.0363
      159 C16    2px       -0.0000    0.0001   -0.0000   -0.0000   -0.0000    0.0000    0.0000   -0.0001    0.0000   -0.0139
      160 C16    *px       -0.0003   -0.0003    0.0001    0.0001    0.0002   -0.0001   -0.0001    0.0008    0.0001   -0.0002
      161 C16    2py       -0.0001   -0.0000   -0.0000    0.0000   -0.0000    0.0000   -0.0000   -0.0000    0.0000    0.0165
      162 C16    *py        0.0014   -0.0001   -0.0000    0.0000   -0.0000    0.0000   -0.0000   -0.0009   -0.0001    0.0024
      163 C16    2pz        0.0000    0.0000    0.0000   -0.0000    0.0000    0.0000    0.0000    0.0000    0.0000    0.0068
      164 C16    *pz        0.0003    0.0000   -0.0001    0.0000   -0.0002    0.0001   -0.0000   -0.0004   -0.0000    0.0012
      165 C16    *200      -0.0002    0.0000    0.0000    0.0000    0.0000   -0.0000   -0.0000   -0.0009   -0.0000    0.0001
      166 C16    *110       0.0002   -0.0001   -0.0000    0.0000    0.0000   -0.0000   -0.0000    0.0001    0.0000   -0.0023
      167 C16    *101       0.0001   -0.0000    0.0000   -0.0000    0.0000    0.0000    0.0000    0.0000    0.0000   -0.0009
      168 C16    *020      -0.0003    0.0000    0.0000    0.0000    0.0000   -0.0000    0.0000   -0.0009   -0.0000    0.0012
      169 C16    *011      -0.0001    0.0001    0.0000    0.0000    0.0000   -0.0000    0.0000   -0.0000   -0.0001    0.0014
      170 C16    *002      -0.0001   -0.0000    0.0000    0.0000    0.0000   -0.0000    0.0000   -0.0009    0.0000   -0.0004
      171 H17    1s        -0.0001   -0.0001    0.0000    0.0000    0.0001   -0.0000   -0.0000    0.0001   -0.0000    0.0138
      172 H17    *s         0.0004    0.0001   -0.0000   -0.0000   -0.0001    0.0001    0.0000    0.0025   -0.0001    0.0015
      173 H17    *px       -0.0000    0.0000   -0.0000   -0.0000   -0.0000    0.0000    0.0000   -0.0001    0.0000    0.0002
      174 H17    *py        0.0000   -0.0000    0.0000   -0.0000   -0.0000    0.0000    0.0000   -0.0000   -0.0000    0.0005
      175 H17    *pz        0.0001    0.0000   -0.0000   -0.0000   -0.0000    0.0000    0.0000   -0.0002   -0.0000    0.0013
      176 H18    1s        -0.0001    0.0000   -0.0000   -0.0000   -0.0000    0.0000    0.0000    0.0001    0.0000    0.0119
      177 H18    *s        -0.0003    0.0002   -0.0000   -0.0001   -0.0001    0.0000    0.0000    0.0023   -0.0000    0.0011
      178 H18    *px       -0.0000   -0.0000    0.0000    0.0000    0.0000   -0.0000   -0.0000    0.0002   -0.0000   -0.0014
      179 H18    *py       -0.0000   -0.0000   -0.0000    0.0000    0.0000   -0.0000   -0.0000    0.0001    0.0000   -0.0001
      180 H18    *pz        0.0000    0.0000    0.0000   -0.0000    0.0000    0.0000    0.0000    0.0000    0.0000    0.0001
      181 H19    1s        -0.0001    0.0000    0.0000    0.0000    0.0000    0.0000    0.0000    0.0001   -0.0000    0.0140
      182 H19    *s         0.0006   -0.0001    0.0001    0.0001    0.0002   -0.0001   -0.0000    0.0025    0.0000    0.0020
      183 H19    *px       -0.0000    0.0001   -0.0000   -0.0000   -0.0000    0.0000    0.0000   -0.0001    0.0000   -0.0001
      184 H19    *py        0.0001   -0.0000    0.0000    0.0000    0.0000   -0.0000    0.0000   -0.0001   -0.0000    0.0012
      185 H19    *pz       -0.0000   -0.0000   -0.0000   -0.0000   -0.0000    0.0000    0.0000    0.0002    0.0000   -0.0008
 
          Orbital           11        12        13        14        15        16        17        18        19        20    
          Energy           -1.0828   -1.0096   -0.9928   -0.9322   -0.8336   -0.8172   -0.7394   -0.6890   -0.6328   -0.6261
          Occ. No.          2.0000    2.0000    2.0000    2.0000    2.0000    2.0000    2.0000    2.0000    2.0000    2.0000
 
        1 C1     1s         0.0628    0.1100   -0.0486   -0.0225   -0.0241   -0.0914    0.0400    0.0211   -0.0431    0.0023
        2 C1     2s        -0.1197   -0.2118    0.0939    0.0443    0.0478    0.1828   -0.0806   -0.0460    0.0903   -0.0049
        3 C1     *s        -0.0899   -0.1626    0.0681    0.0353    0.0408    0.1553   -0.0691   -0.0022    0.0420    0.0014
        4 C1     2px        0.0064   -0.0621   -0.0781    0.0168    0.1407   -0.0943    0.0023   -0.0913   -0.0739   -0.1996
        5 C1     *px       -0.0023   -0.0068   -0.0140    0.0010    0.0300   -0.0388    0.0143   -0.0169   -0.0561   -0.0641
        6 C1     2py        0.0411   -0.0091   -0.0563    0.0089    0.0971    0.0066   -0.1341    0.0905    0.0588   -0.1246
        7 C1     *py        0.0073   -0.0023   -0.0057    0.0047    0.0281    0.0265   -0.0603    0.0117    0.0721   -0.0456
        8 C1     2pz       -0.0082    0.0015    0.0108   -0.0025   -0.0189   -0.0027    0.0295   -0.0199   -0.0112    0.0271
        9 C1     *pz       -0.0014    0.0007    0.0014   -0.0009   -0.0057   -0.0059    0.0130   -0.0028   -0.0151    0.0101
       10 C1     *200      -0.0010   -0.0066   -0.0028    0.0014    0.0054   -0.0012   -0.0011    0.0005   -0.0033   -0.0043
       11 C1     *110      -0.0033   -0.0010    0.0059   -0.0005   -0.0052    0.0005    0.0032    0.0027   -0.0091    0.0049
       12 C1     *101       0.0006   -0.0001   -0.0012    0.0001    0.0013    0.0001   -0.0007   -0.0005    0.0022   -0.0009
       13 C1     *020      -0.0028    0.0008    0.0051   -0.0004   -0.0045    0.0035    0.0003   -0.0001    0.0033    0.0041
       14 C1     *011       0.0025    0.0018   -0.0030   -0.0002    0.0014   -0.0032    0.0006    0.0002   -0.0022   -0.0018
       15 C1     *002       0.0029    0.0049   -0.0019   -0.0009   -0.0012   -0.0034    0.0014    0.0006   -0.0011    0.0003
       16 C2     1s         0.0106    0.1109    0.0651   -0.0131   -0.0649    0.0780    0.0001   -0.0219    0.0475    0.0040
       17 C2     2s        -0.0204   -0.2138   -0.1257    0.0251    0.1290   -0.1565    0.0004    0.0441   -0.0992   -0.0083
       18 C2     *s        -0.0060   -0.1583   -0.0943    0.0222    0.1046   -0.1249   -0.0155    0.0331   -0.0492   -0.0120
       19 C2     2px        0.0591    0.0607   -0.0611   -0.0326   -0.0964   -0.1329    0.0498    0.1276   -0.0268    0.2080
       20 C2     *px        0.0016    0.0090   -0.0140   -0.0056   -0.0151   -0.0416    0.0158    0.0593   -0.0331    0.0750
       21 C2     2py       -0.0068   -0.0049    0.0523   -0.0000    0.0765    0.0144   -0.1389    0.1232   -0.0845   -0.0784
       22 C2     *py       -0.0053   -0.0054    0.0024    0.0003    0.0351   -0.0217   -0.0390    0.0684   -0.0824   -0.0223
       23 C2     2pz        0.0027    0.0018   -0.0113   -0.0039   -0.0172   -0.0032    0.0332   -0.0248    0.0252    0.0263
       24 C2     *pz        0.0011    0.0008   -0.0014   -0.0024   -0.0071    0.0043    0.0109   -0.0121    0.0225    0.0106
       25 C2     *200      -0.0022   -0.0067    0.0012    0.0010    0.0034    0.0023   -0.0042   -0.0030    0.0028   -0.0033
       26 C2     *110      -0.0034   -0.0003    0.0066    0.0004    0.0054    0.0032   -0.0027    0.0015   -0.0080   -0.0036
       27 C2     *101       0.0007   -0.0002   -0.0015   -0.0004   -0.0010   -0.0007    0.0008   -0.0002    0.0021    0.0011
       28 C2     *020       0.0014    0.0009   -0.0044   -0.0003   -0.0015   -0.0044    0.0039    0.0033   -0.0030    0.0033
       29 C2     *011      -0.0004    0.0020    0.0034    0.0002   -0.0006    0.0035   -0.0017   -0.0020    0.0019   -0.0021
       30 C2     *002       0.0006    0.0049    0.0026   -0.0006   -0.0026    0.0027    0.0002   -0.0004    0.0013    0.0003
       31 C3     1s        -0.0510   -0.0000    0.1047   -0.0023    0.0850    0.0144   -0.0306   -0.0065   -0.0404    0.0092
       32 C3     2s         0.0992    0.0001   -0.2031    0.0051   -0.1716   -0.0293    0.0615    0.0118    0.0866   -0.0194
       33 C3     *s         0.0625   -0.0005   -0.1597    0.0056   -0.1455   -0.0275    0.0639    0.0457    0.0480   -0.0121
       34 C3     2px        0.0775    0.0040    0.0654   -0.0225   -0.1028    0.0024   -0.2127    0.0433    0.0996   -0.0111
       35 C3     *px        0.0311    0.0005    0.0230   -0.0155   -0.0551   -0.0011   -0.0690   -0.0085    0.0971   -0.0108
       36 C3     2py        0.0041   -0.1137    0.0039   -0.0324    0.0287   -0.1962   -0.0118    0.0044    0.0153    0.2289
       37 C3     *py        0.0089   -0.0249    0.0065   -0.0125    0.0096   -0.0611   -0.0098   -0.0041    0.0001    0.0756
       38 C3     2pz        0.0012    0.0220    0.0013   -0.0071   -0.0055    0.0430    0.0001    0.0005    0.0025   -0.0327
       39 C3     *pz        0.0008    0.0048    0.0008   -0.0010   -0.0026    0.0135   -0.0007   -0.0005    0.0022   -0.0107
       40 C3     *200       0.0057   -0.0006    0.0004   -0.0013   -0.0050   -0.0009   -0.0063   -0.0049    0.0054    0.0001
       41 C3     *110       0.0007    0.0113    0.0005   -0.0029   -0.0017    0.0122   -0.0003   -0.0010    0.0008   -0.0031
       42 C3     *101       0.0005   -0.0024   -0.0002   -0.0011    0.0002   -0.0020   -0.0001   -0.0001   -0.0003    0.0012
       43 C3     *020      -0.0006    0.0006   -0.0059    0.0010    0.0010    0.0004    0.0050    0.0046   -0.0050    0.0001
       44 C3     *011      -0.0006    0.0001    0.0043   -0.0005    0.0010    0.0005   -0.0021   -0.0018    0.0022   -0.0001
       45 C3     *002      -0.0024   -0.0000    0.0041    0.0001    0.0033    0.0004   -0.0007    0.0002   -0.0012    0.0003
       46 C4     1s         0.0111   -0.1113    0.0665   -0.0074   -0.0423   -0.0907   -0.0072   -0.0233    0.0427   -0.0148
       47 C4     2s        -0.0216    0.2146   -0.1286    0.0154    0.0834    0.1814    0.0150    0.0469   -0.0890    0.0311
       48 C4     *s         0.0045    0.1586   -0.0881    0.0021    0.0725    0.1481   -0.0079    0.0285   -0.0460    0.0212
       49 C4     2px        0.0588   -0.0590   -0.0555    0.0319   -0.1291    0.0950    0.0366    0.1322   -0.0693   -0.1986
       50 C4     *px       -0.0011   -0.0070   -0.0160    0.0088   -0.0241    0.0388    0.0123    0.0650   -0.0595   -0.0645
       51 C4     2py        0.0115   -0.0104   -0.0578    0.0071   -0.0907   -0.0099    0.1429   -0.1167    0.0790   -0.1316
       52 C4     *py        0.0106   -0.0062   -0.0003   -0.0068   -0.0289   -0.0278    0.0360   -0.0665    0.0740   -0.0548
       53 C4     2pz       -0.0018    0.0018    0.0103   -0.0046    0.0170    0.0045   -0.0282    0.0239   -0.0171    0.0293
       54 C4     *pz       -0.0028    0.0009   -0.0001    0.0001    0.0058    0.0061   -0.0069    0.0136   -0.0153    0.0137
       55 C4     *200      -0.0023    0.0067    0.0018   -0.0009    0.0045   -0.0011   -0.0043   -0.0028    0.0029    0.0036
       56 C4     *110       0.0029    0.0010   -0.0056    0.0004   -0.0052    0.0004    0.0013   -0.0026    0.0088   -0.0066
       57 C4     *101      -0.0006   -0.0000    0.0011   -0.0004    0.0010    0.0001   -0.0005    0.0005   -0.0019    0.0015
       58 C4     *020       0.0016   -0.0007   -0.0050    0.0011   -0.0030    0.0036    0.0042    0.0033   -0.0030   -0.0036
       59 C4     *011      -0.0004   -0.0018    0.0031   -0.0009    0.0004   -0.0028   -0.0016   -0.0017    0.0021    0.0016
       60 C4     *002       0.0006   -0.0049    0.0028   -0.0001   -0.0018   -0.0034   -0.0001   -0.0006    0.0012   -0.0006
       61 C5     1s         0.0633   -0.1091   -0.0477    0.0263   -0.0505    0.0775    0.0439    0.0220   -0.0425    0.0087
       62 C5     2s        -0.1202    0.2100    0.0926   -0.0515    0.1007   -0.1553   -0.0886   -0.0481    0.0894   -0.0179
       63 C5     *s        -0.0952    0.1626    0.0632   -0.0384    0.0842   -0.1299   -0.0752   -0.0016    0.0379   -0.0132
       64 C5     2px        0.0095    0.0630   -0.0836    0.0125    0.1213    0.1304    0.0074   -0.0760   -0.0253    0.2344
       65 C5     *px       -0.0046    0.0079   -0.0171    0.0043    0.0226    0.0447    0.0147   -0.0116   -0.0384    0.0850
       66 C5     2py       -0.0404   -0.0049    0.0501   -0.0057   -0.0866   -0.0150    0.1341   -0.0999   -0.0703   -0.0583
       67 C5     *py       -0.0098   -0.0020    0.0030    0.0037   -0.0341    0.0183    0.0644   -0.0127   -0.0751   -0.0064
       68 C5     2pz        0.0083    0.0014   -0.0111    0.0007    0.0185    0.0043   -0.0269    0.0193    0.0140    0.0155
       69 C5     *pz        0.0021    0.0005   -0.0010   -0.0010    0.0069   -0.0031   -0.0128    0.0021    0.0144    0.0027
       70 C5     *200      -0.0014    0.0066   -0.0024   -0.0003    0.0046    0.0024   -0.0005    0.0009   -0.0031    0.0046
       71 C5     *110       0.0035    0.0003   -0.0071    0.0011    0.0062    0.0030   -0.0031   -0.0024    0.0087    0.0023
       72 C5     *101      -0.0008    0.0001    0.0014   -0.0004   -0.0012   -0.0006    0.0006    0.0005   -0.0018   -0.0002
       73 C5     *020      -0.0025   -0.0008    0.0046   -0.0008   -0.0030   -0.0044   -0.0004   -0.0005    0.0031   -0.0045
       74 C5     *011       0.0024   -0.0017   -0.0028    0.0008    0.0004    0.0031    0.0008    0.0004   -0.0017    0.0020
       75 C5     *002       0.0030   -0.0049   -0.0019    0.0011   -0.0022    0.0028    0.0015    0.0006   -0.0011    0.0001
       76 C6     1s         0.0800    0.0006   -0.1115    0.0132    0.0928    0.0129   -0.0353   -0.0315    0.0413   -0.0067
       77 C6     2s        -0.1530   -0.0012    0.2150   -0.0257   -0.1849   -0.0258    0.0728    0.0638   -0.0861    0.0141
       78 C6     *s        -0.1001   -0.0008    0.1716   -0.0228   -0.1581   -0.0216    0.0427    0.0503   -0.0400    0.0065
       79 C6     2px       -0.0398    0.0043    0.0197   -0.0001    0.0519   -0.0005    0.0247   -0.2186    0.1276   -0.0051
       80 C6     *px       -0.0017    0.0003    0.0015    0.0006    0.0380    0.0039   -0.0174   -0.1091    0.1069   -0.0097
       81 C6     2py       -0.0014   -0.1092    0.0009    0.0321   -0.0253    0.1954    0.0095   -0.0051    0.0231    0.2245
       82 C6     *py        0.0000   -0.0144    0.0003    0.0065   -0.0056    0.0485    0.0021   -0.0035    0.0121    0.0777
       83 C6     2pz        0.0002    0.0225   -0.0004   -0.0066    0.0060   -0.0401   -0.0015   -0.0015   -0.0027   -0.0447
       84 C6     *pz       -0.0000    0.0029   -0.0002   -0.0013    0.0017   -0.0100   -0.0004   -0.0004   -0.0008   -0.0152
       85 C6     *200      -0.0012    0.0005    0.0010   -0.0002   -0.0018   -0.0008    0.0023    0.0031   -0.0063    0.0003
       86 C6     *110       0.0002   -0.0117   -0.0003    0.0030   -0.0020    0.0124    0.0007    0.0006   -0.0005    0.0081
       87 C6     *101      -0.0001    0.0024    0.0002   -0.0006    0.0002   -0.0026   -0.0001    0.0001   -0.0001   -0.0015
       88 C6     *020      -0.0036   -0.0005    0.0045   -0.0003   -0.0009    0.0005   -0.0019   -0.0023    0.0058   -0.0003
       89 C6     *011       0.0031    0.0002   -0.0039    0.0004    0.0019    0.0001    0.0002    0.0005   -0.0018    0.0001
       90 C6     *002       0.0036    0.0000   -0.0047    0.0006    0.0036    0.0005   -0.0014   -0.0012    0.0015   -0.0002
       91 H7     1s        -0.0294   -0.0673    0.0317    0.0166    0.0247    0.1049   -0.0993    0.0493    0.1015   -0.0042
       92 H7     *s        -0.0071   -0.0190    0.0090    0.0045    0.0092    0.0407   -0.0508    0.0411    0.0541   -0.0017
       93 H7     *px       -0.0015   -0.0040    0.0009    0.0010    0.0028    0.0037   -0.0044    0.0010    0.0028   -0.0031
       94 H7     *py        0.0027    0.0053   -0.0030   -0.0012   -0.0007   -0.0075    0.0051   -0.0023   -0.0052   -0.0016
       95 H7     *pz       -0.0006   -0.0012    0.0007    0.0003    0.0002    0.0017   -0.0012    0.0006    0.0012    0.0004
       96 H8     1s         0.0019   -0.0688   -0.0374    0.0014    0.0676   -0.0890   -0.0526    0.1192   -0.1016    0.0108
       97 H8     *s         0.0043   -0.0191   -0.0077   -0.0024    0.0263   -0.0334   -0.0309    0.0690   -0.0524    0.0071
       98 H8     *px        0.0006    0.0035    0.0013   -0.0007   -0.0037    0.0021    0.0029   -0.0026    0.0033    0.0029
       99 H8     *py       -0.0002    0.0056    0.0035   -0.0002   -0.0042    0.0068    0.0024   -0.0063    0.0054   -0.0017
      100 H8     *pz        0.0001   -0.0014   -0.0008   -0.0001    0.0011   -0.0017   -0.0005    0.0018   -0.0011    0.0006
      101 H9     1s         0.0019    0.0702   -0.0376    0.0133    0.0417    0.1058   -0.0478    0.1213   -0.1080    0.0222
      102 H9     *s         0.0061    0.0199   -0.0067    0.0044    0.0169    0.0419   -0.0306    0.0709   -0.0598    0.0135
      103 H9     *px        0.0006   -0.0039    0.0016    0.0002   -0.0033   -0.0036    0.0026   -0.0031    0.0033   -0.0039
      104 H9     *py        0.0003    0.0055   -0.0034    0.0010    0.0019    0.0076   -0.0019    0.0062   -0.0056   -0.0005
      105 H9     *pz       -0.0001   -0.0012    0.0007   -0.0003   -0.0005   -0.0016    0.0004   -0.0015    0.0010    0.0001
      106 H10    1s        -0.0297    0.0670    0.0311   -0.0201    0.0532   -0.0884   -0.1068    0.0475    0.0923   -0.0425
      107 H10    *s        -0.0083    0.0190    0.0081   -0.0059    0.0196   -0.0341   -0.0543    0.0404    0.0479   -0.0272
      108 H10    *px       -0.0012    0.0035    0.0007   -0.0008    0.0036   -0.0020   -0.0040    0.0008    0.0027    0.0021
      109 H10    *py       -0.0029    0.0056    0.0030   -0.0017    0.0031   -0.0069   -0.0060    0.0022    0.0046   -0.0036
      110 H10    *pz        0.0006   -0.0011   -0.0006    0.0003   -0.0006    0.0014    0.0012   -0.0005   -0.0009    0.0008
      111 H11    1s        -0.0379   -0.0004    0.0718   -0.0105   -0.1020   -0.0147    0.0203    0.1536   -0.1230    0.0050
      112 H11    *s        -0.0077   -0.0002    0.0214   -0.0036   -0.0388   -0.0057    0.0023    0.0898   -0.0700    0.0008
      113 H11    *px       -0.0040    0.0000    0.0070   -0.0010   -0.0084   -0.0013    0.0018    0.0094   -0.0071    0.0002
      114 H11    *py       -0.0002   -0.0010    0.0003    0.0003   -0.0007    0.0023    0.0002    0.0005   -0.0001    0.0033
      115 H11    *pz       -0.0000    0.0002    0.0000   -0.0001    0.0000   -0.0005   -0.0000    0.0000   -0.0001   -0.0007
      116 C12    1s        -0.1320    0.0019   -0.0462    0.0292    0.0444   -0.0016    0.0903    0.0559    0.0232   -0.0021
      117 C12    2s         0.2542   -0.0035    0.0895   -0.0562   -0.0899    0.0027   -0.1829   -0.1132   -0.0468    0.0047
      118 C12    *s         0.1576   -0.0031    0.0587   -0.0498   -0.0688    0.0062   -0.1800   -0.1101   -0.0649   -0.0012
      119 C12    2px        0.0195   -0.0000    0.1084   -0.0045    0.1455    0.0248    0.0662   -0.0956   -0.2097    0.0040
      120 C12    *px        0.0060   -0.0004    0.0266   -0.0074    0.0310    0.0064    0.0214   -0.0299   -0.0520    0.0007
      121 C12    2py        0.0186   -0.0285    0.0100   -0.1806    0.0394    0.0007    0.0208   -0.0062   -0.0140    0.1464
      122 C12    *py       -0.0114   -0.0042   -0.0048   -0.0373    0.0161   -0.0005    0.0264    0.0122    0.0085    0.0683
      123 C12    2pz        0.0075   -0.0045    0.0041   -0.0687    0.0126    0.0200    0.0091   -0.0011   -0.0080    0.0209
      124 C12    *pz       -0.0034   -0.0015   -0.0013   -0.0143    0.0059    0.0048    0.0102    0.0048    0.0011    0.0072
      125 C12    *200       0.0037    0.0001   -0.0043    0.0012   -0.0072   -0.0012   -0.0028    0.0007    0.0028   -0.0016
      126 C12    *110       0.0014   -0.0000   -0.0009   -0.0138   -0.0001    0.0057    0.0005   -0.0003   -0.0010   -0.0026
      127 C12    *101       0.0005   -0.0008   -0.0003   -0.0053    0.0003    0.0002    0.0002    0.0000   -0.0005    0.0011
      128 C12    *020       0.0045    0.0002    0.0049    0.0010    0.0031    0.0005    0.0002   -0.0009   -0.0016    0.0003
      129 C12    *011       0.0080    0.0002    0.0052    0.0003    0.0007    0.0005   -0.0024   -0.0029   -0.0005   -0.0001
      130 C12    *002      -0.0047    0.0000   -0.0007    0.0006    0.0023    0.0002    0.0030    0.0014    0.0007    0.0001
      131 C13    1s        -0.0913    0.0130   -0.0626    0.1262   -0.0612   -0.0292   -0.0610   -0.0251   -0.0146    0.0110
      132 C13    2s         0.1718   -0.0247    0.1187   -0.2406    0.1179    0.0562    0.1192    0.0487    0.0291   -0.0208
      133 C13    *s         0.1305   -0.0185    0.0956   -0.1980    0.1074    0.0548    0.1178    0.0561    0.0341   -0.0475
      134 C13    2px       -0.0370    0.0078   -0.0016    0.0349    0.0434    0.0198    0.0964    0.0158   -0.0666   -0.1466
      135 C13    *px       -0.0082    0.0008   -0.0031    0.0037    0.0143    0.0068    0.0366    0.0020   -0.0337   -0.0579
      136 C13    2py       -0.0660    0.0017   -0.0390    0.0207    0.0211   -0.0011    0.1134    0.1571    0.1998   -0.0555
      137 C13    *py       -0.0071   -0.0009   -0.0032   -0.0044    0.0087   -0.0001    0.0380    0.0555    0.0829   -0.0112
      138 C13    2pz       -0.0256    0.0025   -0.0148    0.0080    0.0067    0.0068    0.0460    0.0618    0.0846   -0.0373
      139 C13    *pz       -0.0039    0.0010   -0.0013   -0.0010    0.0022    0.0041    0.0155    0.0205    0.0358   -0.0138
      140 C13    *200      -0.0003   -0.0003   -0.0004   -0.0019    0.0012    0.0006    0.0041    0.0032    0.0018   -0.0042
      141 C13    *110       0.0060   -0.0004    0.0022   -0.0039   -0.0030    0.0002   -0.0078   -0.0084   -0.0085    0.0035
      142 C13    *101       0.0023   -0.0004    0.0008   -0.0014   -0.0012   -0.0007   -0.0037   -0.0034   -0.0039    0.0028
      143 C13    *020       0.0027   -0.0001    0.0020   -0.0014    0.0007    0.0004   -0.0012   -0.0011   -0.0001    0.0017
      144 C13    *011       0.0055   -0.0008    0.0039   -0.0061    0.0031    0.0007    0.0017    0.0006    0.0013    0.0023
      145 C13    *002      -0.0031    0.0004   -0.0021    0.0047   -0.0023   -0.0014   -0.0028   -0.0013   -0.0005    0.0014
      146 H14    1s         0.0448   -0.0059    0.0433   -0.0784    0.0722    0.0338    0.1116    0.0385   -0.0182   -0.1008
      147 H14    *s         0.0105   -0.0011    0.0153   -0.0261    0.0348    0.0164    0.0653    0.0267   -0.0110   -0.0732
      148 H14    *px       -0.0050    0.0007   -0.0044    0.0078   -0.0059   -0.0027   -0.0075   -0.0024    0.0010    0.0051
      149 H14    *py       -0.0009    0.0001   -0.0007    0.0006   -0.0003   -0.0001    0.0007    0.0018    0.0028   -0.0007
      150 H14    *pz       -0.0002    0.0000   -0.0002    0.0001    0.0000    0.0001    0.0005    0.0008    0.0011   -0.0007
      151 H15    1s         0.0430   -0.0109    0.0288   -0.0932    0.0518    0.0177    0.0887    0.1071    0.1452   -0.0015
      152 H15    *s         0.0066   -0.0039    0.0050   -0.0323    0.0250    0.0067    0.0535    0.0723    0.1002   -0.0016
      153 H15    *px        0.0019   -0.0002    0.0015   -0.0038    0.0023    0.0013    0.0043    0.0037    0.0046   -0.0022
      154 H15    *py       -0.0042    0.0008   -0.0026    0.0075   -0.0031   -0.0014   -0.0042   -0.0042   -0.0059   -0.0009
      155 H15    *pz       -0.0018    0.0005   -0.0011    0.0034   -0.0016   -0.0004   -0.0020   -0.0023   -0.0027   -0.0007
      156 C16    1s        -0.0818   -0.0148   -0.0730   -0.1456   -0.0339    0.0213   -0.0334   -0.0127   -0.0124   -0.0102
      157 C16    2s         0.1528    0.0280    0.1370    0.2741    0.0634   -0.0401    0.0622    0.0220    0.0218    0.0178
      158 C16    *s         0.1184    0.0255    0.1205    0.2734    0.0741   -0.0465    0.0880    0.0405    0.0388    0.0375
      159 C16    2px       -0.0251   -0.0052    0.0024   -0.0025    0.0486   -0.0134    0.0844    0.0105   -0.0421    0.0915
      160 C16    *px       -0.0040   -0.0018   -0.0003   -0.0054    0.0130   -0.0047    0.0256   -0.0053   -0.0255    0.0413
      161 C16    2py        0.0439   -0.0012    0.0226   -0.0276   -0.0213    0.0095   -0.0802   -0.1138   -0.1361   -0.0467
      162 C16    *py        0.0040   -0.0007    0.0027   -0.0080   -0.0032    0.0024   -0.0228   -0.0418   -0.0601   -0.0146
      163 C16    2pz        0.0172    0.0015    0.0082   -0.0087   -0.0076    0.0125   -0.0321   -0.0296   -0.0710   -0.0465
      164 C16    *pz        0.0025    0.0009    0.0013   -0.0022   -0.0013    0.0045   -0.0095   -0.0099   -0.0313   -0.0180
      165 C16    *200       0.0001    0.0001   -0.0002    0.0003   -0.0003   -0.0002    0.0005   -0.0006   -0.0017    0.0013
      166 C16    *110      -0.0053   -0.0002   -0.0016    0.0004    0.0043   -0.0005    0.0083    0.0054    0.0027    0.0054
      167 C16    *101      -0.0021   -0.0002   -0.0007    0.0003    0.0013   -0.0008    0.0030    0.0022    0.0036    0.0027
      168 C16    *020       0.0030   -0.0000    0.0016   -0.0010   -0.0005    0.0005   -0.0031   -0.0030   -0.0035   -0.0017
      169 C16    *011       0.0036    0.0000    0.0020   -0.0012   -0.0009    0.0006   -0.0039   -0.0054   -0.0045   -0.0016
      170 C16    *002      -0.0011    0.0000   -0.0007    0.0003    0.0000   -0.0001    0.0009    0.0022    0.0042    0.0004
      171 H17    1s         0.0437    0.0105    0.0427    0.1108    0.0251   -0.0209    0.0424    0.0435    0.0813    0.0264
      172 H17    *s         0.0068    0.0029    0.0106    0.0357    0.0115   -0.0091    0.0240    0.0280    0.0564    0.0203
      173 H17    *px        0.0012    0.0002    0.0016    0.0031    0.0014   -0.0009    0.0021    0.0010    0.0012    0.0020
      174 H17    *py        0.0017    0.0003    0.0014    0.0027    0.0003   -0.0005   -0.0001   -0.0007   -0.0000   -0.0001
      175 H17    *pz        0.0042    0.0009    0.0040    0.0094    0.0021   -0.0015    0.0029    0.0028    0.0044    0.0012
      176 H18    1s         0.0458    0.0077    0.0530    0.1000    0.0491   -0.0222    0.0679    0.0059   -0.0293    0.0577
      177 H18    *s         0.0107    0.0020    0.0171    0.0344    0.0243   -0.0099    0.0414    0.0062   -0.0211    0.0385
      178 H18    *px       -0.0049   -0.0008   -0.0050   -0.0095   -0.0036    0.0017   -0.0042   -0.0004    0.0013   -0.0029
      179 H18    *py       -0.0004   -0.0001   -0.0006   -0.0021   -0.0008    0.0006   -0.0018   -0.0017   -0.0020   -0.0017
      180 H18    *pz        0.0003    0.0000    0.0003    0.0002    0.0002    0.0001   -0.0001   -0.0004   -0.0012   -0.0007
      181 H19    1s         0.0441    0.0120    0.0434    0.1115    0.0291   -0.0132    0.0438    0.0540    0.0493    0.0059
      182 H19    *s         0.0072    0.0040    0.0106    0.0383    0.0135   -0.0037    0.0253    0.0380    0.0318    0.0025
      183 H19    *px        0.0004   -0.0001    0.0008    0.0012    0.0009   -0.0007    0.0016    0.0002    0.0002    0.0015
      184 H19    *py        0.0039    0.0009    0.0036    0.0079    0.0017   -0.0009    0.0019    0.0015    0.0010   -0.0005
      185 H19    *pz       -0.0026   -0.0006   -0.0026   -0.0065   -0.0018    0.0010   -0.0028   -0.0028   -0.0034   -0.0011
 
          Orbital           21        22        23        24        25        26        27        28        29        30    
          Energy           -0.6108   -0.5823   -0.5782   -0.5594   -0.5321   -0.5150   -0.4960   -0.4836   -0.4727   -0.3802
          Occ. No.          2.0000    2.0000    2.0000    2.0000    2.0000    2.0000    2.0000    2.0000    2.0000    2.0000
 
        1 C1     1s        -0.0114   -0.0178    0.0019    0.0050   -0.0118    0.0010    0.0013    0.0008    0.0061    0.0048
        2 C1     2s         0.0234    0.0396   -0.0054   -0.0107    0.0248   -0.0002   -0.0023   -0.0036   -0.0155   -0.0093
        3 C1     *s        -0.0043    0.0294   -0.0057   -0.0125    0.0260   -0.0031   -0.0015    0.0079   -0.0167   -0.0334
        4 C1     2px       -0.1231    0.1285    0.0172   -0.1426   -0.0837    0.0985   -0.0031    0.1250   -0.1480   -0.0252
        5 C1     *px       -0.0704    0.0454   -0.0032   -0.0561   -0.0346    0.0484    0.0008    0.0482   -0.0798   -0.0319
        6 C1     2py        0.1529   -0.1665    0.1452   -0.0231   -0.0810   -0.0782    0.0129    0.1883    0.0922   -0.0199
        7 C1     *py        0.0896   -0.0709    0.0598   -0.0038   -0.0224   -0.0488    0.0069    0.0922    0.0592   -0.0336
        8 C1     2pz       -0.0376    0.0482   -0.0062    0.0019    0.0207    0.0302    0.1976   -0.0214    0.0217   -0.1196
        9 C1     *pz       -0.0219    0.0219    0.0009   -0.0010    0.0069    0.0184    0.1293   -0.0075    0.0153   -0.0923
       10 C1     *200       0.0002    0.0039    0.0005   -0.0042   -0.0055    0.0042    0.0000    0.0037   -0.0042   -0.0007
       11 C1     *110      -0.0116    0.0043   -0.0065    0.0013    0.0037    0.0088    0.0048   -0.0147   -0.0129   -0.0005
       12 C1     *101       0.0024   -0.0002    0.0032   -0.0004   -0.0008   -0.0014    0.0055    0.0038    0.0038    0.0050
       13 C1     *020       0.0003   -0.0050   -0.0001    0.0043    0.0052   -0.0054   -0.0023   -0.0027    0.0053    0.0026
       14 C1     *011      -0.0006    0.0019   -0.0011   -0.0018   -0.0025    0.0021   -0.0087    0.0001   -0.0047    0.0081
       15 C1     *002      -0.0004   -0.0002    0.0001    0.0003    0.0001    0.0001    0.0021   -0.0001    0.0006   -0.0015
       16 C2     1s         0.0128   -0.0153    0.0118   -0.0000    0.0132   -0.0073   -0.0030   -0.0040   -0.0057   -0.0103
       17 C2     2s        -0.0278    0.0343   -0.0241   -0.0017   -0.0297    0.0146    0.0063    0.0128    0.0111    0.0222
       18 C2     *s         0.0134    0.0287   -0.0310    0.0132   -0.0134    0.0203   -0.0004   -0.0025    0.0215    0.0291
       19 C2     2px        0.0702   -0.1167   -0.0421    0.1535    0.0763   -0.1033    0.0022   -0.0973    0.1664    0.0449
       20 C2     *px       -0.0002   -0.0544   -0.0269    0.0617    0.0379   -0.0381   -0.0003   -0.0500    0.0626   -0.0164
       21 C2     2py       -0.1432   -0.2044    0.0480    0.0465    0.0841    0.0281    0.0788   -0.1718   -0.1308   -0.0094
       22 C2     *py       -0.0885   -0.0881    0.0210    0.0263    0.0310    0.0141    0.0580   -0.0949   -0.0675    0.0348
       23 C2     2pz        0.0264    0.0628    0.0344   -0.0111   -0.0133    0.0062    0.1834    0.0544    0.0671    0.0423
       24 C2     *pz        0.0157    0.0285    0.0218   -0.0065   -0.0031    0.0069    0.1166    0.0310    0.0417    0.0283
       25 C2     *200      -0.0027    0.0044   -0.0005   -0.0030    0.0001    0.0017   -0.0001    0.0059   -0.0053   -0.0014
       26 C2     *110      -0.0145   -0.0053   -0.0009    0.0013    0.0049    0.0058    0.0018   -0.0181   -0.0092    0.0016
       27 C2     *101       0.0029    0.0016    0.0010   -0.0004   -0.0012   -0.0013   -0.0059    0.0034    0.0004    0.0101
       28 C2     *020       0.0028   -0.0055   -0.0003    0.0037    0.0007   -0.0019   -0.0018   -0.0080    0.0047   -0.0004
       29 C2     *011      -0.0008    0.0014   -0.0029   -0.0020   -0.0008    0.0007   -0.0097    0.0030   -0.0031   -0.0059
       30 C2     *002       0.0005    0.0000    0.0010    0.0000    0.0002   -0.0002    0.0021    0.0001    0.0004    0.0014
       31 C3     1s        -0.0514   -0.0051   -0.0059   -0.0052   -0.0175    0.0096   -0.0009   -0.0040    0.0110   -0.0006
       32 C3     2s         0.1075    0.0116    0.0127    0.0130    0.0369   -0.0217    0.0019    0.0078   -0.0223   -0.0040
       33 C3     *s         0.0887    0.0035    0.0070    0.0016    0.0396   -0.0085    0.0061    0.0210   -0.0410    0.0460
       34 C3     2px       -0.1359   -0.0174   -0.0524    0.0427    0.1356    0.0119    0.0286    0.1340   -0.2364   -0.0080
       35 C3     *px       -0.0036   -0.0055   -0.0128    0.0061    0.0624    0.0099   -0.0013    0.0565   -0.0992   -0.0146
       36 C3     2py        0.0296    0.1083   -0.0819    0.0629   -0.0142   -0.0686    0.0246    0.2176    0.1114    0.0744
       37 C3     *py        0.0045    0.0465   -0.0066    0.0178   -0.0147   -0.0351    0.0307    0.0900    0.0606    0.0798
       38 C3     2pz       -0.0180    0.0092    0.1026   -0.0105    0.0152    0.0189    0.2045   -0.0337   -0.0146    0.1659
       39 C3     *pz       -0.0070    0.0091    0.0517   -0.0007    0.0092    0.0134    0.1307   -0.0124   -0.0021    0.1158
       40 C3     *200      -0.0028    0.0005   -0.0011    0.0005   -0.0008    0.0033    0.0010    0.0074   -0.0092   -0.0007
       41 C3     *110      -0.0013   -0.0134    0.0097   -0.0049    0.0006   -0.0001   -0.0024   -0.0126   -0.0116   -0.0087
       42 C3     *101      -0.0002    0.0036    0.0012    0.0007   -0.0008   -0.0018   -0.0094    0.0005   -0.0016    0.0076
       43 C3     *020       0.0017   -0.0005    0.0013   -0.0005    0.0007   -0.0028   -0.0007   -0.0061    0.0070   -0.0001
       44 C3     *011      -0.0017   -0.0001   -0.0004   -0.0008   -0.0016    0.0014   -0.0006    0.0016   -0.0019    0.0009
       45 C3     *002      -0.0011   -0.0001   -0.0001   -0.0001   -0.0004   -0.0002   -0.0002   -0.0004    0.0005    0.0000
       46 C4     1s         0.0114    0.0221   -0.0094    0.0123    0.0085   -0.0052    0.0016    0.0040    0.0020    0.0062
       47 C4     2s        -0.0243   -0.0481    0.0194   -0.0229   -0.0195    0.0141   -0.0024   -0.0091   -0.0079   -0.0141
       48 C4     *s         0.0054   -0.0415    0.0333   -0.0459   -0.0188   -0.0086   -0.0059   -0.0208    0.0126   -0.0139
       49 C4     2px       -0.0200    0.1354    0.0364   -0.1159    0.1495   -0.0978   -0.0335   -0.1233    0.1361   -0.0170
       50 C4     *px       -0.0372    0.0609    0.0178   -0.0373    0.0701   -0.0456   -0.0113   -0.0386    0.0675    0.0026
       51 C4     2py        0.1176   -0.1619    0.1252    0.0047   -0.0799    0.0656    0.0517   -0.2077   -0.0612   -0.0325
       52 C4     *py        0.0722   -0.0624    0.0629    0.0073   -0.0391    0.0289    0.0324   -0.1107   -0.0305   -0.0150
       53 C4     2pz       -0.0259    0.0506    0.0231    0.0020    0.0304   -0.0032    0.1921    0.0541    0.0405    0.0406
       54 C4     *pz       -0.0157    0.0234    0.0162    0.0030    0.0176    0.0020    0.1251    0.0323    0.0247    0.0318
       55 C4     *200      -0.0025   -0.0044   -0.0012    0.0036   -0.0016    0.0018    0.0013    0.0037   -0.0058    0.0005
       56 C4     *110       0.0124   -0.0046    0.0039    0.0006   -0.0042    0.0090    0.0011   -0.0162   -0.0123    0.0000
       57 C4     *101      -0.0026    0.0011   -0.0001    0.0001    0.0011   -0.0019   -0.0064    0.0028    0.0005    0.0100
       58 C4     *020       0.0021    0.0056    0.0017   -0.0038    0.0026   -0.0028    0.0004   -0.0026    0.0076    0.0011
       59 C4     *011      -0.0007   -0.0012    0.0026    0.0018   -0.0008    0.0016    0.0099    0.0012   -0.0025    0.0063
       60 C4     *002       0.0006    0.0002   -0.0008    0.0002   -0.0001   -0.0002   -0.0018   -0.0003   -0.0002   -0.0011
       61 C5     1s        -0.0120    0.0135   -0.0030   -0.0142   -0.0054    0.0059   -0.0014   -0.0048    0.0027   -0.0021
       62 C5     2s         0.0243   -0.0309    0.0069    0.0296    0.0097   -0.0140    0.0030    0.0132   -0.0055    0.0051
       63 C5     *s        -0.0016   -0.0224    0.0043    0.0398    0.0179   -0.0048    0.0079    0.0127   -0.0127    0.0053
       64 C5     2px       -0.0281   -0.1332   -0.0449    0.0920   -0.1411    0.1138    0.0316    0.0950   -0.1547    0.0080
       65 C5     *px       -0.0337   -0.0494   -0.0132    0.0388   -0.0514    0.0490    0.0138    0.0580   -0.0676    0.0111
       66 C5     2py       -0.1945   -0.2007    0.0804    0.0224    0.0410   -0.1178    0.0192    0.1817    0.0836   -0.0128
       67 C5     *py       -0.1030   -0.0917    0.0289    0.0077    0.0073   -0.0448    0.0162    0.1074    0.0371   -0.0157
       68 C5     2pz        0.0382    0.0495    0.0094   -0.0018   -0.0007    0.0346    0.1975   -0.0203    0.0212   -0.1274
[...]

      Integrated alpha exchange energy                                      -26.327580
      Integrated beta  exchange energy                                      -23.779117
      Integrated  correlation   energy                                       -2.082842

      Nuclear Repulsion energy                                            399.59906781
      Core energy                                                        -284.50057249
      CASSCF contribution energy                                         -296.04271296
      On-top energy                                                       -52.18953908

      Total MC-PDFT energy for state    2                                -348.23225204

      ********************************************************************************


      ********************************************************************************
      ********************************************************************************
      **                          MC-PDFT RESULTS, STATE 03                         ** 
      ********************************************************************************
      MCSCF reference energy                                             -346.51012130

      Integrated total density:                                                 64.000
      Integrated alpha density before functional transformation:                32.000
      Integrated  beta density before functional transformation:                32.000
      Integrated alpha density  after functional transformation:                34.666
      Integrated  beta density  after functional transformation:                29.334

      Exchange energy scaling factor                                          1.000000
      Correlation energy scaling factor                                       1.000000

      Integrated alpha exchange energy                                      -26.418457
      Integrated beta  exchange energy                                      -23.700799
      Integrated  correlation   energy                                       -2.080491

      Nuclear Repulsion energy                                            399.59906781
      Core energy                                                        -284.50057249
      CASSCF contribution energy                                         -295.96291190
      On-top energy                                                       -52.19974775

      Total MC-PDFT energy for state    3                                -348.16265964

      ********************************************************************************


      ********************************************************************************
      ********************************************************************************
      **                          MC-PDFT RESULTS, STATE 04                         ** 
      ********************************************************************************
      MCSCF reference energy                                             -346.48096556

      Integrated total density:                                                 64.000
      Integrated alpha density before functional transformation:                32.000
      Integrated  beta density before functional transformation:                32.000
      Integrated alpha density  after functional transformation:                33.466
      Integrated  beta density  after functional transformation:                30.534

      Exchange energy scaling factor                                          1.000000
      Correlation energy scaling factor                                       1.000000

      Integrated alpha exchange energy                                      -25.779498
      Integrated beta  exchange energy                                      -24.252463
      Integrated  correlation   energy                                       -2.094048

      Nuclear Repulsion energy                                            399.59906781
      Core energy                                                        -284.50057249
      CASSCF contribution energy                                         -296.13154194
      On-top energy                                                       -52.12600919

      Total MC-PDFT energy for state    4                                -348.25755112

      ********************************************************************************


      ********************************************************************************
      ********************************************************************************
      **                          MC-PDFT RESULTS, STATE 05                         ** 
      ********************************************************************************
      MCSCF reference energy                                             -346.46964162

      Integrated total density:                                                 64.000
      Integrated alpha density before functional transformation:                32.000
      Integrated  beta density before functional transformation:                32.000
      Integrated alpha density  after functional transformation:                34.732
      Integrated  beta density  after functional transformation:                29.268

      Exchange energy scaling factor                                          1.000000
      Correlation energy scaling factor                                       1.000000

      Integrated alpha exchange energy                                      -26.451747
      Integrated beta  exchange energy                                      -23.677689
      Integrated  correlation   energy                                       -2.080276

      Nuclear Repulsion energy                                            399.59906781
      Core energy                                                        -284.50057249
      CASSCF contribution energy                                         -295.92849707
      On-top energy                                                       -52.20971231

      Total MC-PDFT energy for state    5                                -348.13820937

      ********************************************************************************

 
--- Stop Module: mcpdft at Mon Dec 13 11:25:45 2021 /rc=_RC_ALL_IS_WELL_ ---
*** files: styrene.McDens styrene.McTrue xmldump
    saved to directory /scratch/chintala.v/photo_enzyme/styrene_8_8
--- Module mcpdft spent 3 minutes 25 seconds ---

*** symbolic link created: INPORB -> styrene.RasOrb
--- Start Module: rassi at Mon Dec 13 11:25:45 2021 ---
 
()()()()()()()()()()()()()()()()()()()()()()()()()()()()()()()()()()()()()()()()()()()()()()()()()()

                                               &RASSI

                       only a single process is used, running in SERIAL mode
                        available to each process: 30 GB of memory, 1 thread
                                            pid: 179877
()()()()()()()()()()()()()()()()()()()()()()()()()()()()()()()()()()()()()()()()()()()()()()()()()()
 
 
      ********************************************************************************
      *                                                                              *
      *                             General data section                             *
      *                                                                              *
      ********************************************************************************
 
   Specific data for JOBIPH file 
 JOBIPH                                                                         
                                                  
   -------------------------------------
 
   Header from SEWARD:
                                                                               
        Integrals generated by Gateway/Seward, Mon Dec 13 11:19:00 2021        
 
   CASSCF title (first line only):
       (No title given)                                                        
 
   STATE IRREP:                             1
   SPIN MULTIPLICITY:                       1
   ACTIVE ELECTRONS:                       10
   MAX RAS1 HOLES:                          0
   MAX RAS3 ELECTRONS:                      0
   NR OF CONFIG:                        19404
 
   The following data are common to all the states:
   ------------------------------------------------
   (note: frozen counts as inactive, deleted as secondary)
 
      Nr of irreps: 1
 
                 Total     No./Irrep 
      Irrep                  1
                             a
 
      INACTIVE      27      27
      ACTIVE        10      10
      SECONDARY    148     148
      BASIS        185     185
 
      RAS1           0       0
      RAS2          10      10
      RAS3           0       0
 
        MATRIX ELEMENTS WILL BE COMPUTED FOR THE FOLLOWING ONE-ELECTRON OPERATOR
 S, UNLESS ZERO BY SYMMETRY.
   (Herm=Hermitian, Anti=Antihermitian, Sing=Singlet operator, Trip=Triplet oper
 ator)
     MLTPL  0   1 (HERMSING)     MLTPL  1   1 (HERMSING)     MLTPL  1   2 (HERMSING)
     MLTPL  1   3 (HERMSING)     MLTPL  2   1 (HERMSING)     MLTPL  2   2 (HERMSING)
     MLTPL  2   3 (HERMSING)     MLTPL  2   4 (HERMSING)     MLTPL  2   5 (HERMSING)
     MLTPL  2   6 (HERMSING)     VELOCITY   1 (ANTISING)     VELOCITY   2 (ANTISING)
     VELOCITY   3 (ANTISING)     ANGMOM     1 (ANTISING)     ANGMOM     2 (ANTISING)
     ANGMOM     3 (ANTISING)     MLTPV  2   1 (ANTISING)     MLTPV  2   2 (ANTISING)
     MLTPV  2   3 (ANTISING)     MLTPV  2   4 (ANTISING)     MLTPV  2   5 (ANTISING)
     MLTPV  2   6 (ANTISING)
 
       EIGENSTATES OF A SPIN-FREE HAMILTONIAN WILL BE COMPUTED BASED ON:
 
  A Hamiltonian matrix computed by RASSI.
  SO coupling elements will be added.
       EIGENSTATES OF SPIN-ORBIT HAMILTONIAN WILL BE COMPUTED
        MATRIX ELEMENTS OVER SPIN EIGENSTATES FOR:
     MLTPL  0   1 (HERMSING)     MLTPL  1   1 (HERMSING)     MLTPL  1   2 (HERMSING)
     MLTPL  1   3 (HERMSING)     MLTPL  2   1 (HERMSING)     MLTPL  2   2 (HERMSING)
     MLTPL  2   3 (HERMSING)     MLTPL  2   4 (HERMSING)     MLTPL  2   5 (HERMSING)
     MLTPL  2   6 (HERMSING)     VELOCITY   1 (ANTISING)     VELOCITY   2 (ANTISING)
     VELOCITY   3 (ANTISING)     ANGMOM     1 (ANTISING)     ANGMOM     2 (ANTISING)
     ANGMOM     3 (ANTISING)     MLTPV  2   1 (ANTISING)     MLTPV  2   2 (ANTISING)
     MLTPV  2   3 (ANTISING)     MLTPV  2   4 (ANTISING)     MLTPV  2   5 (ANTISING)
     MLTPV  2   6 (ANTISING)
 
  Nr of states:                     5
 
   State:        1   2   3   4   5
  JobIph:        1   1   1   1   1
 Root nr:        1   2   3   4   5
 
  HAMILTONIAN MATRIX FOR THE ORIGINAL STATES:
 
  Diagonal, with energies
   -346.75437194   -346.57995558   -346.51012130   -346.48096556   -346.46964162
 
      OVERLAP MATRIX FOR THE ORIGINAL STATES:
 
  Diagonal, with elements
      1.00000000      1.00000000      1.00000000      1.00000000      1.00000000
 
::    RASSI State    1     Total energy:   -346.75437194
::    RASSI State    2     Total energy:   -346.57995558
::    RASSI State    3     Total energy:   -346.51012130
::    RASSI State    4     Total energy:   -346.48096556
::    RASSI State    5     Total energy:   -346.46964162
 
 
 
      ****************************************************************************************************
      *                                                                                                  *
      *                                         Spin-free section                                        *
      *                                                                                                  *
      *                 Note: index according to input order, order according to energy.                 *
      *                                                                                                  *
      ****************************************************************************************************
 
 
 
  SPIN-FREE ENERGIES:
  (Shifted by EMIN (a.u.) =       -346.7543719430)
 
 SF State       Relative EMIN(au)   Rel lowest level(eV)    D:o, cm**(-1)
 
     1             0.0000000000        0.0000000000              0.0000
     2             0.1744163601        4.7461109429          38279.9663
     3             0.2442506401        6.6463985091          53606.8192
     4             0.2734063871        7.4397668005          60005.7660
     5             0.2847303202        7.7479067195          62491.0821
 
++ Dipole transition strengths (spin-free states):
   -----------------------------------------------
     for osc. strength at least  1.00000000E-05
 
      From   To        Osc. strength     Einstein coefficients Ax, Ay, Az (sec-1)    Total A (sec-1)
     -----------------------------------------------------------------------------------------------
         1    2       4.40726855E-05  2.41045247E+04  1.85073724E+04  4.66033848E+02  4.30779310E+04
         1    3       5.33429560E-03  7.07186328E+06  2.59297370E+06  5.60070422E+05  1.02249074E+07
         1    4       4.95640374E-01  1.10787355E+09  6.04900995E+07  2.20417094E+07  1.19040536E+09
         1    5       3.54313102E-03  8.53293951E+06  6.15404200E+05  8.08875713E+04  9.22923128E+06
         2    3       5.88511057E-05  2.54434328E+03  6.17411978E+03  5.03063687E+02  9.22152675E+03
         2    4       1.44977529E-03  2.56242879E+05  1.71672193E+05  2.85362414E+04  4.56451313E+05
         2    5       1.89517168E-03  7.08857418E+05  2.56881926E+04  6.45811687E+03  7.41003727E+05
         3    4       1.67458001E-02  4.52239543E+05  4.91389249E+03  2.13886370E+02  4.57367321E+05
         3    5       2.10163575E-04  1.04198285E+04  5.37076259E+02  1.07867363E+02  1.10647722E+04
         4    5       7.33758261E-04  6.98990209E+02  2.26627001E+03  5.78813254E+01  3.02314155E+03
     -----------------------------------------------------------------------------------------------
--
 
++ Velocity transition strengths (spin-free states):
   -------------------------------------------------
     for osc. strength at least  1.00000000E-05
 
      From   To        Osc. strength     Einstein coefficients Ax, Ay, Az (sec-1)    Total A (sec-1)
     -----------------------------------------------------------------------------------------------
         1    2       1.52504714E-04  7.15831967E+04  6.52196201E+04  1.22597481E+04  1.49062565E+05
         1    3       5.15190050E-03  6.16198756E+06  3.14290913E+06  5.70391344E+05  9.87528804E+06
         1    4       3.78391800E-01  8.49624601E+08  4.16780222E+07  1.75007119E+07  9.08803335E+08
         1    5       2.28380983E-03  5.63655673E+06  3.02521542E+05  9.84346182E+03  5.94892173E+06
         2    3       3.22419163E-05  3.30596779E+03  7.42155200E-01  1.74535645E+03  5.05206640E+03
         2    4       1.46691101E-03  4.21421597E+05  2.36192785E+04  1.68054960E+04  4.61846372E+05
         2    5       2.91151437E-03  1.05001114E+06  7.68344384E+04  1.15436381E+04  1.13838922E+06
         3    4       4.15185355E-02  1.11533606E+06  1.72945431E+04  1.33858684E+03  1.13396919E+06
         3    5       5.63220191E-04  2.92792441E+04  3.63181455E+02  1.02060878E+01  2.96526317E+04
         4    5       1.93539586E-03  5.10332801E+03  2.85546200E+03  1.51926526E+01  7.97398266E+03
     -----------------------------------------------------------------------------------------------
--
 
++ Length and velocity gauge comparison (spin-free states):
   --------------------------------------------------------
 
 --------------------------------------------------
 A comparison between the dipole oscillator strengths in 
 length and velocity gauge will be performed
 
     All dipole oscillator differences above the tolerance of   1.00000000E-01  will be printed 
 
 Due to basis set deficiency these oscillator may be problematic 
 
 The tolerance is defined as ABS(1-O_l/O_v) 
 O_l : dipole oscillator strength in length gauge
 O_p : dipole oscillator strength in velocity gauge
 --------------------------------------------------
 
  Problematic transitions have been found
 
      From   To       Difference (%) Osc. st. (len.) Osc. st. (vel.)
     ---------------------------------------------------------------
         1    2            71.100772  4.40726855E-05  1.52504714E-04
         1    4            30.986024  4.95640374E-01  3.78391800E-01
         1    5            55.141246  3.54313102E-03  2.28380983E-03
         2    3            82.529801  5.88511057E-05  3.22419163E-05
         2    5            34.907700  1.89517168E-03  2.91151437E-03
         3    4            59.666689  1.67458001E-02  4.15185355E-02
         3    5            62.685362  2.10163575E-04  5.63220191E-04
         4    5            62.087433  7.33758261E-04  1.93539586E-03
     ---------------------------------------------------------------
 
 Number of problematic transitions =                      8
 
--
 
 Electric-dipole - electric-octupole not included
 Electric-dipole - magnetic-quadrupole not included
 
 
      ****************************************************************************************************
      *                                                                                                  *
      *                                    Special properties section                                    *
      *                                                                                                  *
      ****************************************************************************************************
 
 
++ I/O STATISTICS
 
  I. General I/O information
  - - - - - - - - - - - - - - - - - - - - - - - - - - - - - - - - - - - - - - - - - - -
  Unit  Name          Flsize      Write/Read            MBytes           Write/Read
                      (MBytes)       Calls              In/Out           Time, sec.
  - - - - - - - - - - - - - - - - - - - - - - - - - - - - - - - - - - - - - - - - - - -
   1  SCRATCH           2.42 .       5/      15 .      2.4/      7.3 .       0/       0
   2  ANNI              0.00 .       0/       0 .      0.0/      0.0 .       0/       0
   3  RUNFILE           2.81 .     182/    1560 .      1.3/     11.3 .       0/       0
   4  ONEINT            5.29 .       0/    6500 .      0.0/    994.9 .       0/       0
   5  JOBIPH            5.38 .       0/      51 .      0.0/      2.2 .       0/       0
   6  ORDINT         1882.78 .       1/    9271 .      0.0/   2317.5 .       0/       0
  - - - - - - - - - - - - - - - - - - - - - - - - - - - - - - - - - - - - - - - - - - -
   *  TOTAL          1898.69 .     188/   17397 .      3.7/   3333.2 .       0/       0
  - - - - - - - - - - - - - - - - - - - - - - - - - - - - - - - - - - - - - - - - - - -
 
  II. I/O Access Patterns
  - - - - - - - - - - - - - - - - - - - -
  Unit  Name               % of random
                         Write/Read calls
  - - - - - - - - - - - - - - - - - - - -
   1  SCRATCH             80.0/ 100.0
   2  ANNI                 0.0/   0.0
   3  RUNFILE             28.6/  10.6
   4  ONEINT               0.0/  15.8
   5  JOBIPH               0.0/  74.5
   6  ORDINT             100.0/   0.0
  - - - - - - - - - - - - - - - - - - - -
--
--- Stop Module: rassi at Mon Dec 13 11:26:09 2021 /rc=_RC_ALL_IS_WELL_ ---
*** files: styrene.rassi.h5 xmldump
    saved to directory /scratch/chintala.v/photo_enzyme/styrene_8_8
--- Module rassi spent 23 seconds ---

.##################.
.# Happy landing! #.
.##################.

    Timing: Wall=428.01 User=355.07 System=41.98
***************************************************************************
*** WorkDir at /scratch/chintala.v/photo_enzyme/styrene_8_8/tmp cleaned ***
***************************************************************************
